-- Tilted grid generated for pflotran runs 
SPECGRID 
 23 23 21 / 

COORD 
 0 0 3095.871317022424 0 0 3010.871317022424 
 100 0 3095.871317022424 100 0 3010.871317022424 
 200 0 3095.871317022424 200 0 3010.871317022424 
 300 0 3095.871317022424 300 0 3010.871317022424 
 350 0 3095.871317022424 350 0 3010.871317022424 
 400 0 3095.871317022424 400 0 3010.871317022424 
 450 0 3095.871317022424 450 0 3010.871317022424 
 475 0 3095.871317022424 475 0 3010.871317022424 
 493 0 3095.871317022424 493 0 3010.871317022424 
 510 0 3095.871317022424 510 0 3010.871317022424 
 526 0 3095.871317022424 526 0 3010.871317022424 
 542 0 3095.871317022424 542 0 3010.871317022424 
 558 0 3095.871317022424 558 0 3010.871317022424 
 574 0 3095.871317022424 574 0 3010.871317022424 
 590 0 3095.871317022424 590 0 3010.871317022424 
 607 0 3095.871317022424 607 0 3010.871317022424 
 625 0 3095.871317022424 625 0 3010.871317022424 
 650 0 3095.871317022424 650 0 3010.871317022424 
 700 0 3095.871317022424 700 0 3010.871317022424 
 750 0 3095.871317022424 750 0 3010.871317022424 
 800 0 3095.871317022424 800 0 3010.871317022424 
 900 0 3095.871317022424 900 0 3010.871317022424 
 1000 0 3095.871317022424 1000 0 3010.871317022424 
 1100 0 3095.871317022424 1100 0 3010.871317022424 
 0 50 3091.5135298850414 0 50 3006.5135298850414 
 100 50 3091.5135298850414 100 50 3006.5135298850414 
 200 50 3091.5135298850414 200 50 3006.5135298850414 
 300 50 3091.5135298850414 300 50 3006.5135298850414 
 350 50 3091.5135298850414 350 50 3006.5135298850414 
 400 50 3091.5135298850414 400 50 3006.5135298850414 
 450 50 3091.5135298850414 450 50 3006.5135298850414 
 475 50 3091.5135298850414 475 50 3006.5135298850414 
 493 50 3091.5135298850414 493 50 3006.5135298850414 
 510 50 3091.5135298850414 510 50 3006.5135298850414 
 526 50 3091.5135298850414 526 50 3006.5135298850414 
 542 50 3091.5135298850414 542 50 3006.5135298850414 
 558 50 3091.5135298850414 558 50 3006.5135298850414 
 574 50 3091.5135298850414 574 50 3006.5135298850414 
 590 50 3091.5135298850414 590 50 3006.5135298850414 
 607 50 3091.5135298850414 607 50 3006.5135298850414 
 625 50 3091.5135298850414 625 50 3006.5135298850414 
 650 50 3091.5135298850414 650 50 3006.5135298850414 
 700 50 3091.5135298850414 700 50 3006.5135298850414 
 750 50 3091.5135298850414 750 50 3006.5135298850414 
 800 50 3091.5135298850414 800 50 3006.5135298850414 
 900 50 3091.5135298850414 900 50 3006.5135298850414 
 1000 50 3091.5135298850414 1000 50 3006.5135298850414 
 1100 50 3091.5135298850414 1100 50 3006.5135298850414 
 0 100 3087.155742747658 0 100 3002.155742747658 
 100 100 3087.155742747658 100 100 3002.155742747658 
 200 100 3087.155742747658 200 100 3002.155742747658 
 300 100 3087.155742747658 300 100 3002.155742747658 
 350 100 3087.155742747658 350 100 3002.155742747658 
 400 100 3087.155742747658 400 100 3002.155742747658 
 450 100 3087.155742747658 450 100 3002.155742747658 
 475 100 3087.155742747658 475 100 3002.155742747658 
 493 100 3087.155742747658 493 100 3002.155742747658 
 510 100 3087.155742747658 510 100 3002.155742747658 
 526 100 3087.155742747658 526 100 3002.155742747658 
 542 100 3087.155742747658 542 100 3002.155742747658 
 558 100 3087.155742747658 558 100 3002.155742747658 
 574 100 3087.155742747658 574 100 3002.155742747658 
 590 100 3087.155742747658 590 100 3002.155742747658 
 607 100 3087.155742747658 607 100 3002.155742747658 
 625 100 3087.155742747658 625 100 3002.155742747658 
 650 100 3087.155742747658 650 100 3002.155742747658 
 700 100 3087.155742747658 700 100 3002.155742747658 
 750 100 3087.155742747658 750 100 3002.155742747658 
 800 100 3087.155742747658 800 100 3002.155742747658 
 900 100 3087.155742747658 900 100 3002.155742747658 
 1000 100 3087.155742747658 1000 100 3002.155742747658 
 1100 100 3087.155742747658 1100 100 3002.155742747658 
 0 150 3082.7979556102755 0 150 2997.7979556102755 
 100 150 3082.7979556102755 100 150 2997.7979556102755 
 200 150 3082.7979556102755 200 150 2997.7979556102755 
 300 150 3082.7979556102755 300 150 2997.7979556102755 
 350 150 3082.7979556102755 350 150 2997.7979556102755 
 400 150 3082.7979556102755 400 150 2997.7979556102755 
 450 150 3082.7979556102755 450 150 2997.7979556102755 
 475 150 3082.7979556102755 475 150 2997.7979556102755 
 493 150 3082.7979556102755 493 150 2997.7979556102755 
 510 150 3082.7979556102755 510 150 2997.7979556102755 
 526 150 3082.7979556102755 526 150 2997.7979556102755 
 542 150 3082.7979556102755 542 150 2997.7979556102755 
 558 150 3082.7979556102755 558 150 2997.7979556102755 
 574 150 3082.7979556102755 574 150 2997.7979556102755 
 590 150 3082.7979556102755 590 150 2997.7979556102755 
 607 150 3082.7979556102755 607 150 2997.7979556102755 
 625 150 3082.7979556102755 625 150 2997.7979556102755 
 650 150 3082.7979556102755 650 150 2997.7979556102755 
 700 150 3082.7979556102755 700 150 2997.7979556102755 
 750 150 3082.7979556102755 750 150 2997.7979556102755 
 800 150 3082.7979556102755 800 150 2997.7979556102755 
 900 150 3082.7979556102755 900 150 2997.7979556102755 
 1000 150 3082.7979556102755 1000 150 2997.7979556102755 
 1100 150 3082.7979556102755 1100 150 2997.7979556102755 
 0 175 3080.619062041584 0 175 2995.619062041584 
 100 175 3080.619062041584 100 175 2995.619062041584 
 200 175 3080.619062041584 200 175 2995.619062041584 
 300 175 3080.619062041584 300 175 2995.619062041584 
 350 175 3080.619062041584 350 175 2995.619062041584 
 400 175 3080.619062041584 400 175 2995.619062041584 
 450 175 3080.619062041584 450 175 2995.619062041584 
 475 175 3080.619062041584 475 175 2995.619062041584 
 493 175 3080.619062041584 493 175 2995.619062041584 
 510 175 3080.619062041584 510 175 2995.619062041584 
 526 175 3080.619062041584 526 175 2995.619062041584 
 542 175 3080.619062041584 542 175 2995.619062041584 
 558 175 3080.619062041584 558 175 2995.619062041584 
 574 175 3080.619062041584 574 175 2995.619062041584 
 590 175 3080.619062041584 590 175 2995.619062041584 
 607 175 3080.619062041584 607 175 2995.619062041584 
 625 175 3080.619062041584 625 175 2995.619062041584 
 650 175 3080.619062041584 650 175 2995.619062041584 
 700 175 3080.619062041584 700 175 2995.619062041584 
 750 175 3080.619062041584 750 175 2995.619062041584 
 800 175 3080.619062041584 800 175 2995.619062041584 
 900 175 3080.619062041584 900 175 2995.619062041584 
 1000 175 3080.619062041584 1000 175 2995.619062041584 
 1100 175 3080.619062041584 1100 175 2995.619062041584 
 0 193 3079.050258672126 0 193 2994.050258672126 
 100 193 3079.050258672126 100 193 2994.050258672126 
 200 193 3079.050258672126 200 193 2994.050258672126 
 300 193 3079.050258672126 300 193 2994.050258672126 
 350 193 3079.050258672126 350 193 2994.050258672126 
 400 193 3079.050258672126 400 193 2994.050258672126 
 450 193 3079.050258672126 450 193 2994.050258672126 
 475 193 3079.050258672126 475 193 2994.050258672126 
 493 193 3079.050258672126 493 193 2994.050258672126 
 510 193 3079.050258672126 510 193 2994.050258672126 
 526 193 3079.050258672126 526 193 2994.050258672126 
 542 193 3079.050258672126 542 193 2994.050258672126 
 558 193 3079.050258672126 558 193 2994.050258672126 
 574 193 3079.050258672126 574 193 2994.050258672126 
 590 193 3079.050258672126 590 193 2994.050258672126 
 607 193 3079.050258672126 607 193 2994.050258672126 
 625 193 3079.050258672126 625 193 2994.050258672126 
 650 193 3079.050258672126 650 193 2994.050258672126 
 700 193 3079.050258672126 700 193 2994.050258672126 
 750 193 3079.050258672126 750 193 2994.050258672126 
 800 193 3079.050258672126 800 193 2994.050258672126 
 900 193 3079.050258672126 900 193 2994.050258672126 
 1000 193 3079.050258672126 1000 193 2994.050258672126 
 1100 193 3079.050258672126 1100 193 2994.050258672126 
 0 210 3077.5686110454158 0 210 2992.5686110454158 
 100 210 3077.5686110454158 100 210 2992.5686110454158 
 200 210 3077.5686110454158 200 210 2992.5686110454158 
 300 210 3077.5686110454158 300 210 2992.5686110454158 
 350 210 3077.5686110454158 350 210 2992.5686110454158 
 400 210 3077.5686110454158 400 210 2992.5686110454158 
 450 210 3077.5686110454158 450 210 2992.5686110454158 
 475 210 3077.5686110454158 475 210 2992.5686110454158 
 493 210 3077.5686110454158 493 210 2992.5686110454158 
 510 210 3077.5686110454158 510 210 2992.5686110454158 
 526 210 3077.5686110454158 526 210 2992.5686110454158 
 542 210 3077.5686110454158 542 210 2992.5686110454158 
 558 210 3077.5686110454158 558 210 2992.5686110454158 
 574 210 3077.5686110454158 574 210 2992.5686110454158 
 590 210 3077.5686110454158 590 210 2992.5686110454158 
 607 210 3077.5686110454158 607 210 2992.5686110454158 
 625 210 3077.5686110454158 625 210 2992.5686110454158 
 650 210 3077.5686110454158 650 210 2992.5686110454158 
 700 210 3077.5686110454158 700 210 2992.5686110454158 
 750 210 3077.5686110454158 750 210 2992.5686110454158 
 800 210 3077.5686110454158 800 210 2992.5686110454158 
 900 210 3077.5686110454158 900 210 2992.5686110454158 
 1000 210 3077.5686110454158 1000 210 2992.5686110454158 
 1100 210 3077.5686110454158 1100 210 2992.5686110454158 
 0 226 3076.1741191614533 0 226 2991.1741191614533 
 100 226 3076.1741191614533 100 226 2991.1741191614533 
 200 226 3076.1741191614533 200 226 2991.1741191614533 
 300 226 3076.1741191614533 300 226 2991.1741191614533 
 350 226 3076.1741191614533 350 226 2991.1741191614533 
 400 226 3076.1741191614533 400 226 2991.1741191614533 
 450 226 3076.1741191614533 450 226 2991.1741191614533 
 475 226 3076.1741191614533 475 226 2991.1741191614533 
 493 226 3076.1741191614533 493 226 2991.1741191614533 
 510 226 3076.1741191614533 510 226 2991.1741191614533 
 526 226 3076.1741191614533 526 226 2991.1741191614533 
 542 226 3076.1741191614533 542 226 2991.1741191614533 
 558 226 3076.1741191614533 558 226 2991.1741191614533 
 574 226 3076.1741191614533 574 226 2991.1741191614533 
 590 226 3076.1741191614533 590 226 2991.1741191614533 
 607 226 3076.1741191614533 607 226 2991.1741191614533 
 625 226 3076.1741191614533 625 226 2991.1741191614533 
 650 226 3076.1741191614533 650 226 2991.1741191614533 
 700 226 3076.1741191614533 700 226 2991.1741191614533 
 750 226 3076.1741191614533 750 226 2991.1741191614533 
 800 226 3076.1741191614533 800 226 2991.1741191614533 
 900 226 3076.1741191614533 900 226 2991.1741191614533 
 1000 226 3076.1741191614533 1000 226 2991.1741191614533 
 1100 226 3076.1741191614533 1100 226 2991.1741191614533 
 0 242 3074.779627277491 0 242 2989.779627277491 
 100 242 3074.779627277491 100 242 2989.779627277491 
 200 242 3074.779627277491 200 242 2989.779627277491 
 300 242 3074.779627277491 300 242 2989.779627277491 
 350 242 3074.779627277491 350 242 2989.779627277491 
 400 242 3074.779627277491 400 242 2989.779627277491 
 450 242 3074.779627277491 450 242 2989.779627277491 
 475 242 3074.779627277491 475 242 2989.779627277491 
 493 242 3074.779627277491 493 242 2989.779627277491 
 510 242 3074.779627277491 510 242 2989.779627277491 
 526 242 3074.779627277491 526 242 2989.779627277491 
 542 242 3074.779627277491 542 242 2989.779627277491 
 558 242 3074.779627277491 558 242 2989.779627277491 
 574 242 3074.779627277491 574 242 2989.779627277491 
 590 242 3074.779627277491 590 242 2989.779627277491 
 607 242 3074.779627277491 607 242 2989.779627277491 
 625 242 3074.779627277491 625 242 2989.779627277491 
 650 242 3074.779627277491 650 242 2989.779627277491 
 700 242 3074.779627277491 700 242 2989.779627277491 
 750 242 3074.779627277491 750 242 2989.779627277491 
 800 242 3074.779627277491 800 242 2989.779627277491 
 900 242 3074.779627277491 900 242 2989.779627277491 
 1000 242 3074.779627277491 1000 242 2989.779627277491 
 1100 242 3074.779627277491 1100 242 2989.779627277491 
 0 258 3073.3851353935283 0 258 2988.3851353935283 
 100 258 3073.3851353935283 100 258 2988.3851353935283 
 200 258 3073.3851353935283 200 258 2988.3851353935283 
 300 258 3073.3851353935283 300 258 2988.3851353935283 
 350 258 3073.3851353935283 350 258 2988.3851353935283 
 400 258 3073.3851353935283 400 258 2988.3851353935283 
 450 258 3073.3851353935283 450 258 2988.3851353935283 
 475 258 3073.3851353935283 475 258 2988.3851353935283 
 493 258 3073.3851353935283 493 258 2988.3851353935283 
 510 258 3073.3851353935283 510 258 2988.3851353935283 
 526 258 3073.3851353935283 526 258 2988.3851353935283 
 542 258 3073.3851353935283 542 258 2988.3851353935283 
 558 258 3073.3851353935283 558 258 2988.3851353935283 
 574 258 3073.3851353935283 574 258 2988.3851353935283 
 590 258 3073.3851353935283 590 258 2988.3851353935283 
 607 258 3073.3851353935283 607 258 2988.3851353935283 
 625 258 3073.3851353935283 625 258 2988.3851353935283 
 650 258 3073.3851353935283 650 258 2988.3851353935283 
 700 258 3073.3851353935283 700 258 2988.3851353935283 
 750 258 3073.3851353935283 750 258 2988.3851353935283 
 800 258 3073.3851353935283 800 258 2988.3851353935283 
 900 258 3073.3851353935283 900 258 2988.3851353935283 
 1000 258 3073.3851353935283 1000 258 2988.3851353935283 
 1100 258 3073.3851353935283 1100 258 2988.3851353935283 
 0 274 3071.990643509566 0 274 2986.990643509566 
 100 274 3071.990643509566 100 274 2986.990643509566 
 200 274 3071.990643509566 200 274 2986.990643509566 
 300 274 3071.990643509566 300 274 2986.990643509566 
 350 274 3071.990643509566 350 274 2986.990643509566 
 400 274 3071.990643509566 400 274 2986.990643509566 
 450 274 3071.990643509566 450 274 2986.990643509566 
 475 274 3071.990643509566 475 274 2986.990643509566 
 493 274 3071.990643509566 493 274 2986.990643509566 
 510 274 3071.990643509566 510 274 2986.990643509566 
 526 274 3071.990643509566 526 274 2986.990643509566 
 542 274 3071.990643509566 542 274 2986.990643509566 
 558 274 3071.990643509566 558 274 2986.990643509566 
 574 274 3071.990643509566 574 274 2986.990643509566 
 590 274 3071.990643509566 590 274 2986.990643509566 
 607 274 3071.990643509566 607 274 2986.990643509566 
 625 274 3071.990643509566 625 274 2986.990643509566 
 650 274 3071.990643509566 650 274 2986.990643509566 
 700 274 3071.990643509566 700 274 2986.990643509566 
 750 274 3071.990643509566 750 274 2986.990643509566 
 800 274 3071.990643509566 800 274 2986.990643509566 
 900 274 3071.990643509566 900 274 2986.990643509566 
 1000 274 3071.990643509566 1000 274 2986.990643509566 
 1100 274 3071.990643509566 1100 274 2986.990643509566 
 0 290 3070.5961516256034 0 290 2985.5961516256034 
 100 290 3070.5961516256034 100 290 2985.5961516256034 
 200 290 3070.5961516256034 200 290 2985.5961516256034 
 300 290 3070.5961516256034 300 290 2985.5961516256034 
 350 290 3070.5961516256034 350 290 2985.5961516256034 
 400 290 3070.5961516256034 400 290 2985.5961516256034 
 450 290 3070.5961516256034 450 290 2985.5961516256034 
 475 290 3070.5961516256034 475 290 2985.5961516256034 
 493 290 3070.5961516256034 493 290 2985.5961516256034 
 510 290 3070.5961516256034 510 290 2985.5961516256034 
 526 290 3070.5961516256034 526 290 2985.5961516256034 
 542 290 3070.5961516256034 542 290 2985.5961516256034 
 558 290 3070.5961516256034 558 290 2985.5961516256034 
 574 290 3070.5961516256034 574 290 2985.5961516256034 
 590 290 3070.5961516256034 590 290 2985.5961516256034 
 607 290 3070.5961516256034 607 290 2985.5961516256034 
 625 290 3070.5961516256034 625 290 2985.5961516256034 
 650 290 3070.5961516256034 650 290 2985.5961516256034 
 700 290 3070.5961516256034 700 290 2985.5961516256034 
 750 290 3070.5961516256034 750 290 2985.5961516256034 
 800 290 3070.5961516256034 800 290 2985.5961516256034 
 900 290 3070.5961516256034 900 290 2985.5961516256034 
 1000 290 3070.5961516256034 1000 290 2985.5961516256034 
 1100 290 3070.5961516256034 1100 290 2985.5961516256034 
 0 307 3069.1145039988933 0 307 2984.1145039988933 
 100 307 3069.1145039988933 100 307 2984.1145039988933 
 200 307 3069.1145039988933 200 307 2984.1145039988933 
 300 307 3069.1145039988933 300 307 2984.1145039988933 
 350 307 3069.1145039988933 350 307 2984.1145039988933 
 400 307 3069.1145039988933 400 307 2984.1145039988933 
 450 307 3069.1145039988933 450 307 2984.1145039988933 
 475 307 3069.1145039988933 475 307 2984.1145039988933 
 493 307 3069.1145039988933 493 307 2984.1145039988933 
 510 307 3069.1145039988933 510 307 2984.1145039988933 
 526 307 3069.1145039988933 526 307 2984.1145039988933 
 542 307 3069.1145039988933 542 307 2984.1145039988933 
 558 307 3069.1145039988933 558 307 2984.1145039988933 
 574 307 3069.1145039988933 574 307 2984.1145039988933 
 590 307 3069.1145039988933 590 307 2984.1145039988933 
 607 307 3069.1145039988933 607 307 2984.1145039988933 
 625 307 3069.1145039988933 625 307 2984.1145039988933 
 650 307 3069.1145039988933 650 307 2984.1145039988933 
 700 307 3069.1145039988933 700 307 2984.1145039988933 
 750 307 3069.1145039988933 750 307 2984.1145039988933 
 800 307 3069.1145039988933 800 307 2984.1145039988933 
 900 307 3069.1145039988933 900 307 2984.1145039988933 
 1000 307 3069.1145039988933 1000 307 2984.1145039988933 
 1100 307 3069.1145039988933 1100 307 2984.1145039988933 
 0 325 3067.545700629435 0 325 2982.545700629435 
 100 325 3067.545700629435 100 325 2982.545700629435 
 200 325 3067.545700629435 200 325 2982.545700629435 
 300 325 3067.545700629435 300 325 2982.545700629435 
 350 325 3067.545700629435 350 325 2982.545700629435 
 400 325 3067.545700629435 400 325 2982.545700629435 
 450 325 3067.545700629435 450 325 2982.545700629435 
 475 325 3067.545700629435 475 325 2982.545700629435 
 493 325 3067.545700629435 493 325 2982.545700629435 
 510 325 3067.545700629435 510 325 2982.545700629435 
 526 325 3067.545700629435 526 325 2982.545700629435 
 542 325 3067.545700629435 542 325 2982.545700629435 
 558 325 3067.545700629435 558 325 2982.545700629435 
 574 325 3067.545700629435 574 325 2982.545700629435 
 590 325 3067.545700629435 590 325 2982.545700629435 
 607 325 3067.545700629435 607 325 2982.545700629435 
 625 325 3067.545700629435 625 325 2982.545700629435 
 650 325 3067.545700629435 650 325 2982.545700629435 
 700 325 3067.545700629435 700 325 2982.545700629435 
 750 325 3067.545700629435 750 325 2982.545700629435 
 800 325 3067.545700629435 800 325 2982.545700629435 
 900 325 3067.545700629435 900 325 2982.545700629435 
 1000 325 3067.545700629435 1000 325 2982.545700629435 
 1100 325 3067.545700629435 1100 325 2982.545700629435 
 0 350 3065.3668070607437 0 350 2980.3668070607437 
 100 350 3065.3668070607437 100 350 2980.3668070607437 
 200 350 3065.3668070607437 200 350 2980.3668070607437 
 300 350 3065.3668070607437 300 350 2980.3668070607437 
 350 350 3065.3668070607437 350 350 2980.3668070607437 
 400 350 3065.3668070607437 400 350 2980.3668070607437 
 450 350 3065.3668070607437 450 350 2980.3668070607437 
 475 350 3065.3668070607437 475 350 2980.3668070607437 
 493 350 3065.3668070607437 493 350 2980.3668070607437 
 510 350 3065.3668070607437 510 350 2980.3668070607437 
 526 350 3065.3668070607437 526 350 2980.3668070607437 
 542 350 3065.3668070607437 542 350 2980.3668070607437 
 558 350 3065.3668070607437 558 350 2980.3668070607437 
 574 350 3065.3668070607437 574 350 2980.3668070607437 
 590 350 3065.3668070607437 590 350 2980.3668070607437 
 607 350 3065.3668070607437 607 350 2980.3668070607437 
 625 350 3065.3668070607437 625 350 2980.3668070607437 
 650 350 3065.3668070607437 650 350 2980.3668070607437 
 700 350 3065.3668070607437 700 350 2980.3668070607437 
 750 350 3065.3668070607437 750 350 2980.3668070607437 
 800 350 3065.3668070607437 800 350 2980.3668070607437 
 900 350 3065.3668070607437 900 350 2980.3668070607437 
 1000 350 3065.3668070607437 1000 350 2980.3668070607437 
 1100 350 3065.3668070607437 1100 350 2980.3668070607437 
 0 400 3061.009019923361 0 400 2976.009019923361 
 100 400 3061.009019923361 100 400 2976.009019923361 
 200 400 3061.009019923361 200 400 2976.009019923361 
 300 400 3061.009019923361 300 400 2976.009019923361 
 350 400 3061.009019923361 350 400 2976.009019923361 
 400 400 3061.009019923361 400 400 2976.009019923361 
 450 400 3061.009019923361 450 400 2976.009019923361 
 475 400 3061.009019923361 475 400 2976.009019923361 
 493 400 3061.009019923361 493 400 2976.009019923361 
 510 400 3061.009019923361 510 400 2976.009019923361 
 526 400 3061.009019923361 526 400 2976.009019923361 
 542 400 3061.009019923361 542 400 2976.009019923361 
 558 400 3061.009019923361 558 400 2976.009019923361 
 574 400 3061.009019923361 574 400 2976.009019923361 
 590 400 3061.009019923361 590 400 2976.009019923361 
 607 400 3061.009019923361 607 400 2976.009019923361 
 625 400 3061.009019923361 625 400 2976.009019923361 
 650 400 3061.009019923361 650 400 2976.009019923361 
 700 400 3061.009019923361 700 400 2976.009019923361 
 750 400 3061.009019923361 750 400 2976.009019923361 
 800 400 3061.009019923361 800 400 2976.009019923361 
 900 400 3061.009019923361 900 400 2976.009019923361 
 1000 400 3061.009019923361 1000 400 2976.009019923361 
 1100 400 3061.009019923361 1100 400 2976.009019923361 
 0 450 3056.6512327859778 0 450 2971.6512327859778 
 100 450 3056.6512327859778 100 450 2971.6512327859778 
 200 450 3056.6512327859778 200 450 2971.6512327859778 
 300 450 3056.6512327859778 300 450 2971.6512327859778 
 350 450 3056.6512327859778 350 450 2971.6512327859778 
 400 450 3056.6512327859778 400 450 2971.6512327859778 
 450 450 3056.6512327859778 450 450 2971.6512327859778 
 475 450 3056.6512327859778 475 450 2971.6512327859778 
 493 450 3056.6512327859778 493 450 2971.6512327859778 
 510 450 3056.6512327859778 510 450 2971.6512327859778 
 526 450 3056.6512327859778 526 450 2971.6512327859778 
 542 450 3056.6512327859778 542 450 2971.6512327859778 
 558 450 3056.6512327859778 558 450 2971.6512327859778 
 574 450 3056.6512327859778 574 450 2971.6512327859778 
 590 450 3056.6512327859778 590 450 2971.6512327859778 
 607 450 3056.6512327859778 607 450 2971.6512327859778 
 625 450 3056.6512327859778 625 450 2971.6512327859778 
 650 450 3056.6512327859778 650 450 2971.6512327859778 
 700 450 3056.6512327859778 700 450 2971.6512327859778 
 750 450 3056.6512327859778 750 450 2971.6512327859778 
 800 450 3056.6512327859778 800 450 2971.6512327859778 
 900 450 3056.6512327859778 900 450 2971.6512327859778 
 1000 450 3056.6512327859778 1000 450 2971.6512327859778 
 1100 450 3056.6512327859778 1100 450 2971.6512327859778 
 0 500 3052.293445648595 0 500 2967.293445648595 
 100 500 3052.293445648595 100 500 2967.293445648595 
 200 500 3052.293445648595 200 500 2967.293445648595 
 300 500 3052.293445648595 300 500 2967.293445648595 
 350 500 3052.293445648595 350 500 2967.293445648595 
 400 500 3052.293445648595 400 500 2967.293445648595 
 450 500 3052.293445648595 450 500 2967.293445648595 
 475 500 3052.293445648595 475 500 2967.293445648595 
 493 500 3052.293445648595 493 500 2967.293445648595 
 510 500 3052.293445648595 510 500 2967.293445648595 
 526 500 3052.293445648595 526 500 2967.293445648595 
 542 500 3052.293445648595 542 500 2967.293445648595 
 558 500 3052.293445648595 558 500 2967.293445648595 
 574 500 3052.293445648595 574 500 2967.293445648595 
 590 500 3052.293445648595 590 500 2967.293445648595 
 607 500 3052.293445648595 607 500 2967.293445648595 
 625 500 3052.293445648595 625 500 2967.293445648595 
 650 500 3052.293445648595 650 500 2967.293445648595 
 700 500 3052.293445648595 700 500 2967.293445648595 
 750 500 3052.293445648595 750 500 2967.293445648595 
 800 500 3052.293445648595 800 500 2967.293445648595 
 900 500 3052.293445648595 900 500 2967.293445648595 
 1000 500 3052.293445648595 1000 500 2967.293445648595 
 1100 500 3052.293445648595 1100 500 2967.293445648595 
 0 600 3043.577871373829 0 600 2958.577871373829 
 100 600 3043.577871373829 100 600 2958.577871373829 
 200 600 3043.577871373829 200 600 2958.577871373829 
 300 600 3043.577871373829 300 600 2958.577871373829 
 350 600 3043.577871373829 350 600 2958.577871373829 
 400 600 3043.577871373829 400 600 2958.577871373829 
 450 600 3043.577871373829 450 600 2958.577871373829 
 475 600 3043.577871373829 475 600 2958.577871373829 
 493 600 3043.577871373829 493 600 2958.577871373829 
 510 600 3043.577871373829 510 600 2958.577871373829 
 526 600 3043.577871373829 526 600 2958.577871373829 
 542 600 3043.577871373829 542 600 2958.577871373829 
 558 600 3043.577871373829 558 600 2958.577871373829 
 574 600 3043.577871373829 574 600 2958.577871373829 
 590 600 3043.577871373829 590 600 2958.577871373829 
 607 600 3043.577871373829 607 600 2958.577871373829 
 625 600 3043.577871373829 625 600 2958.577871373829 
 650 600 3043.577871373829 650 600 2958.577871373829 
 700 600 3043.577871373829 700 600 2958.577871373829 
 750 600 3043.577871373829 750 600 2958.577871373829 
 800 600 3043.577871373829 800 600 2958.577871373829 
 900 600 3043.577871373829 900 600 2958.577871373829 
 1000 600 3043.577871373829 1000 600 2958.577871373829 
 1100 600 3043.577871373829 1100 600 2958.577871373829 
 0 700 3034.862297099063 0 700 2949.862297099063 
 100 700 3034.862297099063 100 700 2949.862297099063 
 200 700 3034.862297099063 200 700 2949.862297099063 
 300 700 3034.862297099063 300 700 2949.862297099063 
 350 700 3034.862297099063 350 700 2949.862297099063 
 400 700 3034.862297099063 400 700 2949.862297099063 
 450 700 3034.862297099063 450 700 2949.862297099063 
 475 700 3034.862297099063 475 700 2949.862297099063 
 493 700 3034.862297099063 493 700 2949.862297099063 
 510 700 3034.862297099063 510 700 2949.862297099063 
 526 700 3034.862297099063 526 700 2949.862297099063 
 542 700 3034.862297099063 542 700 2949.862297099063 
 558 700 3034.862297099063 558 700 2949.862297099063 
 574 700 3034.862297099063 574 700 2949.862297099063 
 590 700 3034.862297099063 590 700 2949.862297099063 
 607 700 3034.862297099063 607 700 2949.862297099063 
 625 700 3034.862297099063 625 700 2949.862297099063 
 650 700 3034.862297099063 650 700 2949.862297099063 
 700 700 3034.862297099063 700 700 2949.862297099063 
 750 700 3034.862297099063 750 700 2949.862297099063 
 800 700 3034.862297099063 800 700 2949.862297099063 
 900 700 3034.862297099063 900 700 2949.862297099063 
 1000 700 3034.862297099063 1000 700 2949.862297099063 
 1100 700 3034.862297099063 1100 700 2949.862297099063 
 0 800 3026.1467228242977 0 800 2941.1467228242977 
 100 800 3026.1467228242977 100 800 2941.1467228242977 
 200 800 3026.1467228242977 200 800 2941.1467228242977 
 300 800 3026.1467228242977 300 800 2941.1467228242977 
 350 800 3026.1467228242977 350 800 2941.1467228242977 
 400 800 3026.1467228242977 400 800 2941.1467228242977 
 450 800 3026.1467228242977 450 800 2941.1467228242977 
 475 800 3026.1467228242977 475 800 2941.1467228242977 
 493 800 3026.1467228242977 493 800 2941.1467228242977 
 510 800 3026.1467228242977 510 800 2941.1467228242977 
 526 800 3026.1467228242977 526 800 2941.1467228242977 
 542 800 3026.1467228242977 542 800 2941.1467228242977 
 558 800 3026.1467228242977 558 800 2941.1467228242977 
 574 800 3026.1467228242977 574 800 2941.1467228242977 
 590 800 3026.1467228242977 590 800 2941.1467228242977 
 607 800 3026.1467228242977 607 800 2941.1467228242977 
 625 800 3026.1467228242977 625 800 2941.1467228242977 
 650 800 3026.1467228242977 650 800 2941.1467228242977 
 700 800 3026.1467228242977 700 800 2941.1467228242977 
 750 800 3026.1467228242977 750 800 2941.1467228242977 
 800 800 3026.1467228242977 800 800 2941.1467228242977 
 900 800 3026.1467228242977 900 800 2941.1467228242977 
 1000 800 3026.1467228242977 1000 800 2941.1467228242977 
 1100 800 3026.1467228242977 1100 800 2941.1467228242977 
 0 900 3017.431148549532 0 900 2932.431148549532 
 100 900 3017.431148549532 100 900 2932.431148549532 
 200 900 3017.431148549532 200 900 2932.431148549532 
 300 900 3017.431148549532 300 900 2932.431148549532 
 350 900 3017.431148549532 350 900 2932.431148549532 
 400 900 3017.431148549532 400 900 2932.431148549532 
 450 900 3017.431148549532 450 900 2932.431148549532 
 475 900 3017.431148549532 475 900 2932.431148549532 
 493 900 3017.431148549532 493 900 2932.431148549532 
 510 900 3017.431148549532 510 900 2932.431148549532 
 526 900 3017.431148549532 526 900 2932.431148549532 
 542 900 3017.431148549532 542 900 2932.431148549532 
 558 900 3017.431148549532 558 900 2932.431148549532 
 574 900 3017.431148549532 574 900 2932.431148549532 
 590 900 3017.431148549532 590 900 2932.431148549532 
 607 900 3017.431148549532 607 900 2932.431148549532 
 625 900 3017.431148549532 625 900 2932.431148549532 
 650 900 3017.431148549532 650 900 2932.431148549532 
 700 900 3017.431148549532 700 900 2932.431148549532 
 750 900 3017.431148549532 750 900 2932.431148549532 
 800 900 3017.431148549532 800 900 2932.431148549532 
 900 900 3017.431148549532 900 900 2932.431148549532 
 1000 900 3017.431148549532 1000 900 2932.431148549532 
 1100 900 3017.431148549532 1100 900 2932.431148549532 
 0 1000 3008.715574274766 0 1000 2923.715574274766 
 100 1000 3008.715574274766 100 1000 2923.715574274766 
 200 1000 3008.715574274766 200 1000 2923.715574274766 
 300 1000 3008.715574274766 300 1000 2923.715574274766 
 350 1000 3008.715574274766 350 1000 2923.715574274766 
 400 1000 3008.715574274766 400 1000 2923.715574274766 
 450 1000 3008.715574274766 450 1000 2923.715574274766 
 475 1000 3008.715574274766 475 1000 2923.715574274766 
 493 1000 3008.715574274766 493 1000 2923.715574274766 
 510 1000 3008.715574274766 510 1000 2923.715574274766 
 526 1000 3008.715574274766 526 1000 2923.715574274766 
 542 1000 3008.715574274766 542 1000 2923.715574274766 
 558 1000 3008.715574274766 558 1000 2923.715574274766 
 574 1000 3008.715574274766 574 1000 2923.715574274766 
 590 1000 3008.715574274766 590 1000 2923.715574274766 
 607 1000 3008.715574274766 607 1000 2923.715574274766 
 625 1000 3008.715574274766 625 1000 2923.715574274766 
 650 1000 3008.715574274766 650 1000 2923.715574274766 
 700 1000 3008.715574274766 700 1000 2923.715574274766 