-- Tilted grid generated for pflotran runs 
SPECGRID 
 23 23 21 / 

COORD 
 0 0 3095.871317022424 0 0 3010.871317022424 
 100 0 3095.871317022424 100 0 3010.871317022424 
 200 0 3095.871317022424 200 0 3010.871317022424 
 300 0 3095.871317022424 300 0 3010.871317022424 
 350 0 3095.871317022424 350 0 3010.871317022424 
 400 0 3095.871317022424 400 0 3010.871317022424 
 450 0 3095.871317022424 450 0 3010.871317022424 
 475 0 3095.871317022424 475 0 3010.871317022424 
 493 0 3095.871317022424 493 0 3010.871317022424 
 510 0 3095.871317022424 510 0 3010.871317022424 
 526 0 3095.871317022424 526 0 3010.871317022424 
 542 0 3095.871317022424 542 0 3010.871317022424 
 558 0 3095.871317022424 558 0 3010.871317022424 
 574 0 3095.871317022424 574 0 3010.871317022424 
 590 0 3095.871317022424 590 0 3010.871317022424 
 607 0 3095.871317022424 607 0 3010.871317022424 
 625 0 3095.871317022424 625 0 3010.871317022424 
 650 0 3095.871317022424 650 0 3010.871317022424 
 700 0 3095.871317022424 700 0 3010.871317022424 
 750 0 3095.871317022424 750 0 3010.871317022424 
 800 0 3095.871317022424 800 0 3010.871317022424 
 900 0 3095.871317022424 900 0 3010.871317022424 
 1000 0 3095.871317022424 1000 0 3010.871317022424 
 1100 0 3095.871317022424 1100 0 3010.871317022424 
 0 100 3087.155742747658 0 100 3002.155742747658 
 100 100 3087.155742747658 100 100 3002.155742747658 
 200 100 3087.155742747658 200 100 3002.155742747658 
 300 100 3087.155742747658 300 100 3002.155742747658 
 350 100 3087.155742747658 350 100 3002.155742747658 
 400 100 3087.155742747658 400 100 3002.155742747658 
 450 100 3087.155742747658 450 100 3002.155742747658 
 475 100 3087.155742747658 475 100 3002.155742747658 
 493 100 3087.155742747658 493 100 3002.155742747658 
 510 100 3087.155742747658 510 100 3002.155742747658 
 526 100 3087.155742747658 526 100 3002.155742747658 
 542 100 3087.155742747658 542 100 3002.155742747658 
 558 100 3087.155742747658 558 100 3002.155742747658 
 574 100 3087.155742747658 574 100 3002.155742747658 
 590 100 3087.155742747658 590 100 3002.155742747658 
 607 100 3087.155742747658 607 100 3002.155742747658 
 625 100 3087.155742747658 625 100 3002.155742747658 
 650 100 3087.155742747658 650 100 3002.155742747658 
 700 100 3087.155742747658 700 100 3002.155742747658 
 750 100 3087.155742747658 750 100 3002.155742747658 
 800 100 3087.155742747658 800 100 3002.155742747658 
 900 100 3087.155742747658 900 100 3002.155742747658 
 1000 100 3087.155742747658 1000 100 3002.155742747658 
 1100 100 3087.155742747658 1100 100 3002.155742747658 
 0 200 3078.4401684728923 0 200 2993.4401684728923 
 100 200 3078.4401684728923 100 200 2993.4401684728923 
 200 200 3078.4401684728923 200 200 2993.4401684728923 
 300 200 3078.4401684728923 300 200 2993.4401684728923 
 350 200 3078.4401684728923 350 200 2993.4401684728923 
 400 200 3078.4401684728923 400 200 2993.4401684728923 
 450 200 3078.4401684728923 450 200 2993.4401684728923 
 475 200 3078.4401684728923 475 200 2993.4401684728923 
 493 200 3078.4401684728923 493 200 2993.4401684728923 
 510 200 3078.4401684728923 510 200 2993.4401684728923 
 526 200 3078.4401684728923 526 200 2993.4401684728923 
 542 200 3078.4401684728923 542 200 2993.4401684728923 
 558 200 3078.4401684728923 558 200 2993.4401684728923 
 574 200 3078.4401684728923 574 200 2993.4401684728923 
 590 200 3078.4401684728923 590 200 2993.4401684728923 
 607 200 3078.4401684728923 607 200 2993.4401684728923 
 625 200 3078.4401684728923 625 200 2993.4401684728923 
 650 200 3078.4401684728923 650 200 2993.4401684728923 
 700 200 3078.4401684728923 700 200 2993.4401684728923 
 750 200 3078.4401684728923 750 200 2993.4401684728923 
 800 200 3078.4401684728923 800 200 2993.4401684728923 
 900 200 3078.4401684728923 900 200 2993.4401684728923 
 1000 200 3078.4401684728923 1000 200 2993.4401684728923 
 1100 200 3078.4401684728923 1100 200 2993.4401684728923 
 0 300 3069.724594198127 0 300 2984.724594198127 
 100 300 3069.724594198127 100 300 2984.724594198127 
 200 300 3069.724594198127 200 300 2984.724594198127 
 300 300 3069.724594198127 300 300 2984.724594198127 
 350 300 3069.724594198127 350 300 2984.724594198127 
 400 300 3069.724594198127 400 300 2984.724594198127 
 450 300 3069.724594198127 450 300 2984.724594198127 
 475 300 3069.724594198127 475 300 2984.724594198127 
 493 300 3069.724594198127 493 300 2984.724594198127 
 510 300 3069.724594198127 510 300 2984.724594198127 
 526 300 3069.724594198127 526 300 2984.724594198127 
 542 300 3069.724594198127 542 300 2984.724594198127 
 558 300 3069.724594198127 558 300 2984.724594198127 
 574 300 3069.724594198127 574 300 2984.724594198127 
 590 300 3069.724594198127 590 300 2984.724594198127 
 607 300 3069.724594198127 607 300 2984.724594198127 
 625 300 3069.724594198127 625 300 2984.724594198127 
 650 300 3069.724594198127 650 300 2984.724594198127 
 700 300 3069.724594198127 700 300 2984.724594198127 
 750 300 3069.724594198127 750 300 2984.724594198127 
 800 300 3069.724594198127 800 300 2984.724594198127 
 900 300 3069.724594198127 900 300 2984.724594198127 
 1000 300 3069.724594198127 1000 300 2984.724594198127 
 1100 300 3069.724594198127 1100 300 2984.724594198127 
 0 350 3065.3668070607437 0 350 2980.3668070607437 
 100 350 3065.3668070607437 100 350 2980.3668070607437 
 200 350 3065.3668070607437 200 350 2980.3668070607437 
 300 350 3065.3668070607437 300 350 2980.3668070607437 
 350 350 3065.3668070607437 350 350 2980.3668070607437 
 400 350 3065.3668070607437 400 350 2980.3668070607437 
 450 350 3065.3668070607437 450 350 2980.3668070607437 
 475 350 3065.3668070607437 475 350 2980.3668070607437 
 493 350 3065.3668070607437 493 350 2980.3668070607437 
 510 350 3065.3668070607437 510 350 2980.3668070607437 
 526 350 3065.3668070607437 526 350 2980.3668070607437 
 542 350 3065.3668070607437 542 350 2980.3668070607437 
 558 350 3065.3668070607437 558 350 2980.3668070607437 
 574 350 3065.3668070607437 574 350 2980.3668070607437 
 590 350 3065.3668070607437 590 350 2980.3668070607437 
 607 350 3065.3668070607437 607 350 2980.3668070607437 
 625 350 3065.3668070607437 625 350 2980.3668070607437 
 650 350 3065.3668070607437 650 350 2980.3668070607437 
 700 350 3065.3668070607437 700 350 2980.3668070607437 
 750 350 3065.3668070607437 750 350 2980.3668070607437 
 800 350 3065.3668070607437 800 350 2980.3668070607437 
 900 350 3065.3668070607437 900 350 2980.3668070607437 
 1000 350 3065.3668070607437 1000 350 2980.3668070607437 
 1100 350 3065.3668070607437 1100 350 2980.3668070607437 
 0 400 3061.009019923361 0 400 2976.009019923361 
 100 400 3061.009019923361 100 400 2976.009019923361 
 200 400 3061.009019923361 200 400 2976.009019923361 
 300 400 3061.009019923361 300 400 2976.009019923361 
 350 400 3061.009019923361 350 400 2976.009019923361 
 400 400 3061.009019923361 400 400 2976.009019923361 
 450 400 3061.009019923361 450 400 2976.009019923361 
 475 400 3061.009019923361 475 400 2976.009019923361 
 493 400 3061.009019923361 493 400 2976.009019923361 
 510 400 3061.009019923361 510 400 2976.009019923361 
 526 400 3061.009019923361 526 400 2976.009019923361 
 542 400 3061.009019923361 542 400 2976.009019923361 
 558 400 3061.009019923361 558 400 2976.009019923361 
 574 400 3061.009019923361 574 400 2976.009019923361 
 590 400 3061.009019923361 590 400 2976.009019923361 
 607 400 3061.009019923361 607 400 2976.009019923361 
 625 400 3061.009019923361 625 400 2976.009019923361 
 650 400 3061.009019923361 650 400 2976.009019923361 
 700 400 3061.009019923361 700 400 2976.009019923361 
 750 400 3061.009019923361 750 400 2976.009019923361 
 800 400 3061.009019923361 800 400 2976.009019923361 
 900 400 3061.009019923361 900 400 2976.009019923361 
 1000 400 3061.009019923361 1000 400 2976.009019923361 
 1100 400 3061.009019923361 1100 400 2976.009019923361 
 0 450 3056.6512327859778 0 450 2971.6512327859778 
 100 450 3056.6512327859778 100 450 2971.6512327859778 
 200 450 3056.6512327859778 200 450 2971.6512327859778 
 300 450 3056.6512327859778 300 450 2971.6512327859778 
 350 450 3056.6512327859778 350 450 2971.6512327859778 
 400 450 3056.6512327859778 400 450 2971.6512327859778 
 450 450 3056.6512327859778 450 450 2971.6512327859778 
 475 450 3056.6512327859778 475 450 2971.6512327859778 
 493 450 3056.6512327859778 493 450 2971.6512327859778 
 510 450 3056.6512327859778 510 450 2971.6512327859778 
 526 450 3056.6512327859778 526 450 2971.6512327859778 
 542 450 3056.6512327859778 542 450 2971.6512327859778 
 558 450 3056.6512327859778 558 450 2971.6512327859778 
 574 450 3056.6512327859778 574 450 2971.6512327859778 
 590 450 3056.6512327859778 590 450 2971.6512327859778 
 607 450 3056.6512327859778 607 450 2971.6512327859778 
 625 450 3056.6512327859778 625 450 2971.6512327859778 
 650 450 3056.6512327859778 650 450 2971.6512327859778 
 700 450 3056.6512327859778 700 450 2971.6512327859778 
 750 450 3056.6512327859778 750 450 2971.6512327859778 
 800 450 3056.6512327859778 800 450 2971.6512327859778 
 900 450 3056.6512327859778 900 450 2971.6512327859778 
 1000 450 3056.6512327859778 1000 450 2971.6512327859778 
 1100 450 3056.6512327859778 1100 450 2971.6512327859778 
 0 475 3054.4723392172864 0 475 2969.4723392172864 
 100 475 3054.4723392172864 100 475 2969.4723392172864 
 200 475 3054.4723392172864 200 475 2969.4723392172864 
 300 475 3054.4723392172864 300 475 2969.4723392172864 
 350 475 3054.4723392172864 350 475 2969.4723392172864 
 400 475 3054.4723392172864 400 475 2969.4723392172864 
 450 475 3054.4723392172864 450 475 2969.4723392172864 
 475 475 3054.4723392172864 475 475 2969.4723392172864 
 493 475 3054.4723392172864 493 475 2969.4723392172864 
 510 475 3054.4723392172864 510 475 2969.4723392172864 
 526 475 3054.4723392172864 526 475 2969.4723392172864 
 542 475 3054.4723392172864 542 475 2969.4723392172864 
 558 475 3054.4723392172864 558 475 2969.4723392172864 
 574 475 3054.4723392172864 574 475 2969.4723392172864 
 590 475 3054.4723392172864 590 475 2969.4723392172864 
 607 475 3054.4723392172864 607 475 2969.4723392172864 
 625 475 3054.4723392172864 625 475 2969.4723392172864 
 650 475 3054.4723392172864 650 475 2969.4723392172864 
 700 475 3054.4723392172864 700 475 2969.4723392172864 
 750 475 3054.4723392172864 750 475 2969.4723392172864 
 800 475 3054.4723392172864 800 475 2969.4723392172864 
 900 475 3054.4723392172864 900 475 2969.4723392172864 
 1000 475 3054.4723392172864 1000 475 2969.4723392172864 
 1100 475 3054.4723392172864 1100 475 2969.4723392172864 
 0 493 3052.9035358478286 0 493 2967.9035358478286 
 100 493 3052.9035358478286 100 493 2967.9035358478286 
 200 493 3052.9035358478286 200 493 2967.9035358478286 
 300 493 3052.9035358478286 300 493 2967.9035358478286 
 350 493 3052.9035358478286 350 493 2967.9035358478286 
 400 493 3052.9035358478286 400 493 2967.9035358478286 
 450 493 3052.9035358478286 450 493 2967.9035358478286 
 475 493 3052.9035358478286 475 493 2967.9035358478286 
 493 493 3052.9035358478286 493 493 2967.9035358478286 
 510 493 3052.9035358478286 510 493 2967.9035358478286 
 526 493 3052.9035358478286 526 493 2967.9035358478286 
 542 493 3052.9035358478286 542 493 2967.9035358478286 
 558 493 3052.9035358478286 558 493 2967.9035358478286 
 574 493 3052.9035358478286 574 493 2967.9035358478286 
 590 493 3052.9035358478286 590 493 2967.9035358478286 
 607 493 3052.9035358478286 607 493 2967.9035358478286 
 625 493 3052.9035358478286 625 493 2967.9035358478286 
 650 493 3052.9035358478286 650 493 2967.9035358478286 
 700 493 3052.9035358478286 700 493 2967.9035358478286 
 750 493 3052.9035358478286 750 493 2967.9035358478286 
 800 493 3052.9035358478286 800 493 2967.9035358478286 
 900 493 3052.9035358478286 900 493 2967.9035358478286 
 1000 493 3052.9035358478286 1000 493 2967.9035358478286 
 1100 493 3052.9035358478286 1100 493 2967.9035358478286 
 0 510 3051.4218882211185 0 510 2966.4218882211185 
 100 510 3051.4218882211185 100 510 2966.4218882211185 
 200 510 3051.4218882211185 200 510 2966.4218882211185 
 300 510 3051.4218882211185 300 510 2966.4218882211185 
 350 510 3051.4218882211185 350 510 2966.4218882211185 
 400 510 3051.4218882211185 400 510 2966.4218882211185 
 450 510 3051.4218882211185 450 510 2966.4218882211185 
 475 510 3051.4218882211185 475 510 2966.4218882211185 
 493 510 3051.4218882211185 493 510 2966.4218882211185 
 510 510 3051.4218882211185 510 510 2966.4218882211185 
 526 510 3051.4218882211185 526 510 2966.4218882211185 
 542 510 3051.4218882211185 542 510 2966.4218882211185 
 558 510 3051.4218882211185 558 510 2966.4218882211185 
 574 510 3051.4218882211185 574 510 2966.4218882211185 
 590 510 3051.4218882211185 590 510 2966.4218882211185 
 607 510 3051.4218882211185 607 510 2966.4218882211185 
 625 510 3051.4218882211185 625 510 2966.4218882211185 
 650 510 3051.4218882211185 650 510 2966.4218882211185 
 700 510 3051.4218882211185 700 510 2966.4218882211185 
 750 510 3051.4218882211185 750 510 2966.4218882211185 
 800 510 3051.4218882211185 800 510 2966.4218882211185 
 900 510 3051.4218882211185 900 510 2966.4218882211185 
 1000 510 3051.4218882211185 1000 510 2966.4218882211185 
 1100 510 3051.4218882211185 1100 510 2966.4218882211185 
 0 526 3050.027396337156 0 526 2965.027396337156 
 100 526 3050.027396337156 100 526 2965.027396337156 
 200 526 3050.027396337156 200 526 2965.027396337156 
 300 526 3050.027396337156 300 526 2965.027396337156 
 350 526 3050.027396337156 350 526 2965.027396337156 
 400 526 3050.027396337156 400 526 2965.027396337156 
 450 526 3050.027396337156 450 526 2965.027396337156 
 475 526 3050.027396337156 475 526 2965.027396337156 
 493 526 3050.027396337156 493 526 2965.027396337156 
 510 526 3050.027396337156 510 526 2965.027396337156 
 526 526 3050.027396337156 526 526 2965.027396337156 
 542 526 3050.027396337156 542 526 2965.027396337156 
 558 526 3050.027396337156 558 526 2965.027396337156 
 574 526 3050.027396337156 574 526 2965.027396337156 
 590 526 3050.027396337156 590 526 2965.027396337156 
 607 526 3050.027396337156 607 526 2965.027396337156 
 625 526 3050.027396337156 625 526 2965.027396337156 
 650 526 3050.027396337156 650 526 2965.027396337156 
 700 526 3050.027396337156 700 526 2965.027396337156 
 750 526 3050.027396337156 750 526 2965.027396337156 
 800 526 3050.027396337156 800 526 2965.027396337156 
 900 526 3050.027396337156 900 526 2965.027396337156 
 1000 526 3050.027396337156 1000 526 2965.027396337156 
 1100 526 3050.027396337156 1100 526 2965.027396337156 
 0 542 3048.6329044531935 0 542 2963.6329044531935 
 100 542 3048.6329044531935 100 542 2963.6329044531935 
 200 542 3048.6329044531935 200 542 2963.6329044531935 
 300 542 3048.6329044531935 300 542 2963.6329044531935 
 350 542 3048.6329044531935 350 542 2963.6329044531935 
 400 542 3048.6329044531935 400 542 2963.6329044531935 
 450 542 3048.6329044531935 450 542 2963.6329044531935 
 475 542 3048.6329044531935 475 542 2963.6329044531935 
 493 542 3048.6329044531935 493 542 2963.6329044531935 
 510 542 3048.6329044531935 510 542 2963.6329044531935 
 526 542 3048.6329044531935 526 542 2963.6329044531935 
 542 542 3048.6329044531935 542 542 2963.6329044531935 
 558 542 3048.6329044531935 558 542 2963.6329044531935 
 574 542 3048.6329044531935 574 542 2963.6329044531935 
 590 542 3048.6329044531935 590 542 2963.6329044531935 
 607 542 3048.6329044531935 607 542 2963.6329044531935 
 625 542 3048.6329044531935 625 542 2963.6329044531935 
 650 542 3048.6329044531935 650 542 2963.6329044531935 
 700 542 3048.6329044531935 700 542 2963.6329044531935 
 750 542 3048.6329044531935 750 542 2963.6329044531935 
 800 542 3048.6329044531935 800 542 2963.6329044531935 
 900 542 3048.6329044531935 900 542 2963.6329044531935 
 1000 542 3048.6329044531935 1000 542 2963.6329044531935 
 1100 542 3048.6329044531935 1100 542 2963.6329044531935 
 0 558 3047.238412569231 0 558 2962.238412569231 
 100 558 3047.238412569231 100 558 2962.238412569231 
 200 558 3047.238412569231 200 558 2962.238412569231 
 300 558 3047.238412569231 300 558 2962.238412569231 
 350 558 3047.238412569231 350 558 2962.238412569231 
 400 558 3047.238412569231 400 558 2962.238412569231 
 450 558 3047.238412569231 450 558 2962.238412569231 
 475 558 3047.238412569231 475 558 2962.238412569231 
 493 558 3047.238412569231 493 558 2962.238412569231 
 510 558 3047.238412569231 510 558 2962.238412569231 
 526 558 3047.238412569231 526 558 2962.238412569231 
 542 558 3047.238412569231 542 558 2962.238412569231 
 558 558 3047.238412569231 558 558 2962.238412569231 
 574 558 3047.238412569231 574 558 2962.238412569231 
 590 558 3047.238412569231 590 558 2962.238412569231 
 607 558 3047.238412569231 607 558 2962.238412569231 
 625 558 3047.238412569231 625 558 2962.238412569231 
 650 558 3047.238412569231 650 558 2962.238412569231 
 700 558 3047.238412569231 700 558 2962.238412569231 
 750 558 3047.238412569231 750 558 2962.238412569231 
 800 558 3047.238412569231 800 558 2962.238412569231 
 900 558 3047.238412569231 900 558 2962.238412569231 
 1000 558 3047.238412569231 1000 558 2962.238412569231 
 1100 558 3047.238412569231 1100 558 2962.238412569231 
 0 574 3045.843920685268 0 574 2960.843920685268 
 100 574 3045.843920685268 100 574 2960.843920685268 
 200 574 3045.843920685268 200 574 2960.843920685268 
 300 574 3045.843920685268 300 574 2960.843920685268 
 350 574 3045.843920685268 350 574 2960.843920685268 
 400 574 3045.843920685268 400 574 2960.843920685268 
 450 574 3045.843920685268 450 574 2960.843920685268 
 475 574 3045.843920685268 475 574 2960.843920685268 
 493 574 3045.843920685268 493 574 2960.843920685268 
 510 574 3045.843920685268 510 574 2960.843920685268 
 526 574 3045.843920685268 526 574 2960.843920685268 
 542 574 3045.843920685268 542 574 2960.843920685268 
 558 574 3045.843920685268 558 574 2960.843920685268 
 574 574 3045.843920685268 574 574 2960.843920685268 
 590 574 3045.843920685268 590 574 2960.843920685268 
 607 574 3045.843920685268 607 574 2960.843920685268 
 625 574 3045.843920685268 625 574 2960.843920685268 
 650 574 3045.843920685268 650 574 2960.843920685268 
 700 574 3045.843920685268 700 574 2960.843920685268 
 750 574 3045.843920685268 750 574 2960.843920685268 
 800 574 3045.843920685268 800 574 2960.843920685268 
 900 574 3045.843920685268 900 574 2960.843920685268 
 1000 574 3045.843920685268 1000 574 2960.843920685268 
 1100 574 3045.843920685268 1100 574 2960.843920685268 
 0 590 3044.4494288013057 0 590 2959.4494288013057 
 100 590 3044.4494288013057 100 590 2959.4494288013057 
 200 590 3044.4494288013057 200 590 2959.4494288013057 
 300 590 3044.4494288013057 300 590 2959.4494288013057 
 350 590 3044.4494288013057 350 590 2959.4494288013057 
 400 590 3044.4494288013057 400 590 2959.4494288013057 
 450 590 3044.4494288013057 450 590 2959.4494288013057 
 475 590 3044.4494288013057 475 590 2959.4494288013057 
 493 590 3044.4494288013057 493 590 2959.4494288013057 
 510 590 3044.4494288013057 510 590 2959.4494288013057 
 526 590 3044.4494288013057 526 590 2959.4494288013057 
 542 590 3044.4494288013057 542 590 2959.4494288013057 
 558 590 3044.4494288013057 558 590 2959.4494288013057 
 574 590 3044.4494288013057 574 590 2959.4494288013057 
 590 590 3044.4494288013057 590 590 2959.4494288013057 
 607 590 3044.4494288013057 607 590 2959.4494288013057 
 625 590 3044.4494288013057 625 590 2959.4494288013057 
 650 590 3044.4494288013057 650 590 2959.4494288013057 
 700 590 3044.4494288013057 700 590 2959.4494288013057 
 750 590 3044.4494288013057 750 590 2959.4494288013057 
 800 590 3044.4494288013057 800 590 2959.4494288013057 
 900 590 3044.4494288013057 900 590 2959.4494288013057 
 1000 590 3044.4494288013057 1000 590 2959.4494288013057 
 1100 590 3044.4494288013057 1100 590 2959.4494288013057 
 0 607 3042.9677811745955 0 607 2957.9677811745955 
 100 607 3042.9677811745955 100 607 2957.9677811745955 
 200 607 3042.9677811745955 200 607 2957.9677811745955 
 300 607 3042.9677811745955 300 607 2957.9677811745955 
 350 607 3042.9677811745955 350 607 2957.9677811745955 
 400 607 3042.9677811745955 400 607 2957.9677811745955 
 450 607 3042.9677811745955 450 607 2957.9677811745955 
 475 607 3042.9677811745955 475 607 2957.9677811745955 
 493 607 3042.9677811745955 493 607 2957.9677811745955 
 510 607 3042.9677811745955 510 607 2957.9677811745955 
 526 607 3042.9677811745955 526 607 2957.9677811745955 
 542 607 3042.9677811745955 542 607 2957.9677811745955 
 558 607 3042.9677811745955 558 607 2957.9677811745955 
 574 607 3042.9677811745955 574 607 2957.9677811745955 
 590 607 3042.9677811745955 590 607 2957.9677811745955 
 607 607 3042.9677811745955 607 607 2957.9677811745955 
 625 607 3042.9677811745955 625 607 2957.9677811745955 
 650 607 3042.9677811745955 650 607 2957.9677811745955 
 700 607 3042.9677811745955 700 607 2957.9677811745955 
 750 607 3042.9677811745955 750 607 2957.9677811745955 
 800 607 3042.9677811745955 800 607 2957.9677811745955 
 900 607 3042.9677811745955 900 607 2957.9677811745955 
 1000 607 3042.9677811745955 1000 607 2957.9677811745955 
 1100 607 3042.9677811745955 1100 607 2957.9677811745955 
 0 625 3041.3989778051377 0 625 2956.3989778051377 
 100 625 3041.3989778051377 100 625 2956.3989778051377 
 200 625 3041.3989778051377 200 625 2956.3989778051377 
 300 625 3041.3989778051377 300 625 2956.3989778051377 
 350 625 3041.3989778051377 350 625 2956.3989778051377 
 400 625 3041.3989778051377 400 625 2956.3989778051377 
 450 625 3041.3989778051377 450 625 2956.3989778051377 
 475 625 3041.3989778051377 475 625 2956.3989778051377 
 493 625 3041.3989778051377 493 625 2956.3989778051377 
 510 625 3041.3989778051377 510 625 2956.3989778051377 
 526 625 3041.3989778051377 526 625 2956.3989778051377 
 542 625 3041.3989778051377 542 625 2956.3989778051377 
 558 625 3041.3989778051377 558 625 2956.3989778051377 
 574 625 3041.3989778051377 574 625 2956.3989778051377 
 590 625 3041.3989778051377 590 625 2956.3989778051377 
 607 625 3041.3989778051377 607 625 2956.3989778051377 
 625 625 3041.3989778051377 625 625 2956.3989778051377 
 650 625 3041.3989778051377 650 625 2956.3989778051377 
 700 625 3041.3989778051377 700 625 2956.3989778051377 
 750 625 3041.3989778051377 750 625 2956.3989778051377 
 800 625 3041.3989778051377 800 625 2956.3989778051377 
 900 625 3041.3989778051377 900 625 2956.3989778051377 
 1000 625 3041.3989778051377 1000 625 2956.3989778051377 
 1100 625 3041.3989778051377 1100 625 2956.3989778051377 
 0 650 3039.2200842364464 0 650 2954.2200842364464 
 100 650 3039.2200842364464 100 650 2954.2200842364464 
 200 650 3039.2200842364464 200 650 2954.2200842364464 
 300 650 3039.2200842364464 300 650 2954.2200842364464 
 350 650 3039.2200842364464 350 650 2954.2200842364464 
 400 650 3039.2200842364464 400 650 2954.2200842364464 
 450 650 3039.2200842364464 450 650 2954.2200842364464 
 475 650 3039.2200842364464 475 650 2954.2200842364464 
 493 650 3039.2200842364464 493 650 2954.2200842364464 
 510 650 3039.2200842364464 510 650 2954.2200842364464 
 526 650 3039.2200842364464 526 650 2954.2200842364464 
 542 650 3039.2200842364464 542 650 2954.2200842364464 
 558 650 3039.2200842364464 558 650 2954.2200842364464 
 574 650 3039.2200842364464 574 650 2954.2200842364464 
 590 650 3039.2200842364464 590 650 2954.2200842364464 
 607 650 3039.2200842364464 607 650 2954.2200842364464 
 625 650 3039.2200842364464 625 650 2954.2200842364464 
 650 650 3039.2200842364464 650 650 2954.2200842364464 
 700 650 3039.2200842364464 700 650 2954.2200842364464 
 750 650 3039.2200842364464 750 650 2954.2200842364464 
 800 650 3039.2200842364464 800 650 2954.2200842364464 
 900 650 3039.2200842364464 900 650 2954.2200842364464 
 1000 650 3039.2200842364464 1000 650 2954.2200842364464 
 1100 650 3039.2200842364464 1100 650 2954.2200842364464 
 0 700 3034.862297099063 0 700 2949.862297099063 
 100 700 3034.862297099063 100 700 2949.862297099063 
 200 700 3034.862297099063 200 700 2949.862297099063 
 300 700 3034.862297099063 300 700 2949.862297099063 
 350 700 3034.862297099063 350 700 2949.862297099063 
 400 700 3034.862297099063 400 700 2949.862297099063 
 450 700 3034.862297099063 450 700 2949.862297099063 
 475 700 3034.862297099063 475 700 2949.862297099063 
 493 700 3034.862297099063 493 700 2949.862297099063 
 510 700 3034.862297099063 510 700 2949.862297099063 
 526 700 3034.862297099063 526 700 2949.862297099063 
 542 700 3034.862297099063 542 700 2949.862297099063 
 558 700 3034.862297099063 558 700 2949.862297099063 
 574 700 3034.862297099063 574 700 2949.862297099063 
 590 700 3034.862297099063 590 700 2949.862297099063 
 607 700 3034.862297099063 607 700 2949.862297099063 
 625 700 3034.862297099063 625 700 2949.862297099063 
 650 700 3034.862297099063 650 700 2949.862297099063 
 700 700 3034.862297099063 700 700 2949.862297099063 
 750 700 3034.862297099063 750 700 2949.862297099063 
 800 700 3034.862297099063 800 700 2949.862297099063 
 900 700 3034.862297099063 900 700 2949.862297099063 
 1000 700 3034.862297099063 1000 700 2949.862297099063 
 1100 700 3034.862297099063 1100 700 2949.862297099063 
 0 750 3030.5045099616805 0 750 2945.5045099616805 
 100 750 3030.5045099616805 100 750 2945.5045099616805 
 200 750 3030.5045099616805 200 750 2945.5045099616805 
 300 750 3030.5045099616805 300 750 2945.5045099616805 
 350 750 3030.5045099616805 350 750 2945.5045099616805 
 400 750 3030.5045099616805 400 750 2945.5045099616805 
 450 750 3030.5045099616805 450 750 2945.5045099616805 
 475 750 3030.5045099616805 475 750 2945.5045099616805 
 493 750 3030.5045099616805 493 750 2945.5045099616805 
 510 750 3030.5045099616805 510 750 2945.5045099616805 
 526 750 3030.5045099616805 526 750 2945.5045099616805 
 542 750 3030.5045099616805 542 750 2945.5045099616805 
 558 750 3030.5045099616805 558 750 2945.5045099616805 
 574 750 3030.5045099616805 574 750 2945.5045099616805 
 590 750 3030.5045099616805 590 750 2945.5045099616805 
 607 750 3030.5045099616805 607 750 2945.5045099616805 
 625 750 3030.5045099616805 625 750 2945.5045099616805 
 650 750 3030.5045099616805 650 750 2945.5045099616805 
 700 750 3030.5045099616805 700 750 2945.5045099616805 
 750 750 3030.5045099616805 750 750 2945.5045099616805 
 800 750 3030.5045099616805 800 750 2945.5045099616805 
 900 750 3030.5045099616805 900 750 2945.5045099616805 
 1000 750 3030.5045099616805 1000 750 2945.5045099616805 
 1100 750 3030.5045099616805 1100 750 2945.5045099616805 
 0 800 3026.1467228242977 0 800 2941.1467228242977 
 100 800 3026.1467228242977 100 800 2941.1467228242977 
 200 800 3026.1467228242977 200 800 2941.1467228242977 
 300 800 3026.1467228242977 300 800 2941.1467228242977 
 350 800 3026.1467228242977 350 800 2941.1467228242977 
 400 800 3026.1467228242977 400 800 2941.1467228242977 
 450 800 3026.1467228242977 450 800 2941.1467228242977 
 475 800 3026.1467228242977 475 800 2941.1467228242977 
 493 800 3026.1467228242977 493 800 2941.1467228242977 
 510 800 3026.1467228242977 510 800 2941.1467228242977 
 526 800 3026.1467228242977 526 800 2941.1467228242977 
 542 800 3026.1467228242977 542 800 2941.1467228242977 
 558 800 3026.1467228242977 558 800 2941.1467228242977 
 574 800 3026.1467228242977 574 800 2941.1467228242977 
 590 800 3026.1467228242977 590 800 2941.1467228242977 
 607 800 3026.1467228242977 607 800 2941.1467228242977 
 625 800 3026.1467228242977 625 800 2941.1467228242977 
 650 800 3026.1467228242977 650 800 2941.1467228242977 
 700 800 3026.1467228242977 700 800 2941.1467228242977 
 750 800 3026.1467228242977 750 800 2941.1467228242977 
 800 800 3026.1467228242977 800 800 2941.1467228242977 
 900 800 3026.1467228242977 900 800 2941.1467228242977 
 1000 800 3026.1467228242977 1000 800 2941.1467228242977 
 1100 800 3026.1467228242977 1100 800 2941.1467228242977 
 0 900 3017.431148549532 0 900 2932.431148549532 
 100 900 3017.431148549532 100 900 2932.431148549532 
 200 900 3017.431148549532 200 900 2932.431148549532 
 300 900 3017.431148549532 300 900 2932.431148549532 
 350 900 3017.431148549532 350 900 2932.431148549532 
 400 900 3017.431148549532 400 900 2932.431148549532 
 450 900 3017.431148549532 450 900 2932.431148549532 
 475 900 3017.431148549532 475 900 2932.431148549532 
 493 900 3017.431148549532 493 900 2932.431148549532 
 510 900 3017.431148549532 510 900 2932.431148549532 
 526 900 3017.431148549532 526 900 2932.431148549532 
 542 900 3017.431148549532 542 900 2932.431148549532 
 558 900 3017.431148549532 558 900 2932.431148549532 
 574 900 3017.431148549532 574 900 2932.431148549532 
 590 900 3017.431148549532 590 900 2932.431148549532 
 607 900 3017.431148549532 607 900 2932.431148549532 
 625 900 3017.431148549532 625 900 2932.431148549532 
 650 900 3017.431148549532 650 900 2932.431148549532 
 700 900 3017.431148549532 700 900 2932.431148549532 
 750 900 3017.431148549532 750 900 2932.431148549532 
 800 900 3017.431148549532 800 900 2932.431148549532 
 900 900 3017.431148549532 900 900 2932.431148549532 
 1000 900 3017.431148549532 1000 900 2932.431148549532 
 1100 900 3017.431148549532 1100 900 2932.431148549532 
 0 1000 3008.715574274766 0 1000 2923.715574274766 
 100 1000 3008.715574274766 100 1000 2923.715574274766 
 200 1000 3008.715574274766 200 1000 2923.715574274766 
 300 1000 3008.715574274766 300 1000 2923.715574274766 
 350 1000 3008.715574274766 350 1000 2923.715574274766 
 400 1000 3008.715574274766 400 1000 2923.715574274766 
 450 1000 3008.715574274766 450 1000 2923.715574274766 
 475 1000 3008.715574274766 475 1000 2923.715574274766 
 493 1000 3008.715574274766 493 1000 2923.715574274766 
 510 1000 3008.715574274766 510 1000 2923.715574274766 
 526 1000 3008.715574274766 526 1000 2923.715574274766 
 542 1000 3008.715574274766 542 1000 2923.715574274766 
 558 1000 3008.715574274766 558 1000 2923.715574274766 
 574 1000 3008.715574274766 574 1000 2923.715574274766 
 590 1000 3008.715574274766 590 1000 2923.715574274766 