-- Tilted grid generated for pflotran runs 
SPECGRID 
 100 100 3 / 

COORD 

 0.000000 0.000000 3087.155743 0.000000 7.408238 3171.832292 
 10.000000 0.000000 3087.155743 10.000000 7.408238 3171.832292 
 20.000000 0.000000 3087.155743 20.000000 7.408238 3171.832292 
 30.000000 0.000000 3087.155743 30.000000 7.408238 3171.832292 
 40.000000 0.000000 3087.155743 40.000000 7.408238 3171.832292 
 50.000000 0.000000 3087.155743 50.000000 7.408238 3171.832292 
 60.000000 0.000000 3087.155743 60.000000 7.408238 3171.832292 
 70.000000 0.000000 3087.155743 70.000000 7.408238 3171.832292 
 80.000000 0.000000 3087.155743 80.000000 7.408238 3171.832292 
 90.000000 0.000000 3087.155743 90.000000 7.408238 3171.832292 
 100.000000 0.000000 3087.155743 100.000000 7.408238 3171.832292 
 110.000000 0.000000 3087.155743 110.000000 7.408238 3171.832292 
 120.000000 0.000000 3087.155743 120.000000 7.408238 3171.832292 
 130.000000 0.000000 3087.155743 130.000000 7.408238 3171.832292 
 140.000000 0.000000 3087.155743 140.000000 7.408238 3171.832292 
 150.000000 0.000000 3087.155743 150.000000 7.408238 3171.832292 
 160.000000 0.000000 3087.155743 160.000000 7.408238 3171.832292 
 170.000000 0.000000 3087.155743 170.000000 7.408238 3171.832292 
 180.000000 0.000000 3087.155743 180.000000 7.408238 3171.832292 
 190.000000 0.000000 3087.155743 190.000000 7.408238 3171.832292 
 200.000000 0.000000 3087.155743 200.000000 7.408238 3171.832292 
 210.000000 0.000000 3087.155743 210.000000 7.408238 3171.832292 
 220.000000 0.000000 3087.155743 220.000000 7.408238 3171.832292 
 230.000000 0.000000 3087.155743 230.000000 7.408238 3171.832292 
 240.000000 0.000000 3087.155743 240.000000 7.408238 3171.832292 
 250.000000 0.000000 3087.155743 250.000000 7.408238 3171.832292 
 260.000000 0.000000 3087.155743 260.000000 7.408238 3171.832292 
 270.000000 0.000000 3087.155743 270.000000 7.408238 3171.832292 
 280.000000 0.000000 3087.155743 280.000000 7.408238 3171.832292 
 290.000000 0.000000 3087.155743 290.000000 7.408238 3171.832292 
 300.000000 0.000000 3087.155743 300.000000 7.408238 3171.832292 
 310.000000 0.000000 3087.155743 310.000000 7.408238 3171.832292 
 320.000000 0.000000 3087.155743 320.000000 7.408238 3171.832292 
 330.000000 0.000000 3087.155743 330.000000 7.408238 3171.832292 
 340.000000 0.000000 3087.155743 340.000000 7.408238 3171.832292 
 350.000000 0.000000 3087.155743 350.000000 7.408238 3171.832292 
 360.000000 0.000000 3087.155743 360.000000 7.408238 3171.832292 
 370.000000 0.000000 3087.155743 370.000000 7.408238 3171.832292 
 380.000000 0.000000 3087.155743 380.000000 7.408238 3171.832292 
 390.000000 0.000000 3087.155743 390.000000 7.408238 3171.832292 
 400.000000 0.000000 3087.155743 400.000000 7.408238 3171.832292 
 410.000000 0.000000 3087.155743 410.000000 7.408238 3171.832292 
 420.000000 0.000000 3087.155743 420.000000 7.408238 3171.832292 
 430.000000 0.000000 3087.155743 430.000000 7.408238 3171.832292 
 440.000000 0.000000 3087.155743 440.000000 7.408238 3171.832292 
 450.000000 0.000000 3087.155743 450.000000 7.408238 3171.832292 
 460.000000 0.000000 3087.155743 460.000000 7.408238 3171.832292 
 470.000000 0.000000 3087.155743 470.000000 7.408238 3171.832292 
 480.000000 0.000000 3087.155743 480.000000 7.408238 3171.832292 
 490.000000 0.000000 3087.155743 490.000000 7.408238 3171.832292 
 500.000000 0.000000 3087.155743 500.000000 7.408238 3171.832292 
 510.000000 0.000000 3087.155743 510.000000 7.408238 3171.832292 
 520.000000 0.000000 3087.155743 520.000000 7.408238 3171.832292 
 530.000000 0.000000 3087.155743 530.000000 7.408238 3171.832292 
 540.000000 0.000000 3087.155743 540.000000 7.408238 3171.832292 
 550.000000 0.000000 3087.155743 550.000000 7.408238 3171.832292 
 560.000000 0.000000 3087.155743 560.000000 7.408238 3171.832292 
 570.000000 0.000000 3087.155743 570.000000 7.408238 3171.832292 
 580.000000 0.000000 3087.155743 580.000000 7.408238 3171.832292 
 590.000000 0.000000 3087.155743 590.000000 7.408238 3171.832292 
 600.000000 0.000000 3087.155743 600.000000 7.408238 3171.832292 
 610.000000 0.000000 3087.155743 610.000000 7.408238 3171.832292 
 620.000000 0.000000 3087.155743 620.000000 7.408238 3171.832292 
 630.000000 0.000000 3087.155743 630.000000 7.408238 3171.832292 
 640.000000 0.000000 3087.155743 640.000000 7.408238 3171.832292 
 650.000000 0.000000 3087.155743 650.000000 7.408238 3171.832292 
 660.000000 0.000000 3087.155743 660.000000 7.408238 3171.832292 
 670.000000 0.000000 3087.155743 670.000000 7.408238 3171.832292 
 680.000000 0.000000 3087.155743 680.000000 7.408238 3171.832292 
 690.000000 0.000000 3087.155743 690.000000 7.408238 3171.832292 
 700.000000 0.000000 3087.155743 700.000000 7.408238 3171.832292 
 710.000000 0.000000 3087.155743 710.000000 7.408238 3171.832292 
 720.000000 0.000000 3087.155743 720.000000 7.408238 3171.832292 
 730.000000 0.000000 3087.155743 730.000000 7.408238 3171.832292 
 740.000000 0.000000 3087.155743 740.000000 7.408238 3171.832292 
 750.000000 0.000000 3087.155743 750.000000 7.408238 3171.832292 
 760.000000 0.000000 3087.155743 760.000000 7.408238 3171.832292 
 770.000000 0.000000 3087.155743 770.000000 7.408238 3171.832292 
 780.000000 0.000000 3087.155743 780.000000 7.408238 3171.832292 
 790.000000 0.000000 3087.155743 790.000000 7.408238 3171.832292 
 800.000000 0.000000 3087.155743 800.000000 7.408238 3171.832292 
 810.000000 0.000000 3087.155743 810.000000 7.408238 3171.832292 
 820.000000 0.000000 3087.155743 820.000000 7.408238 3171.832292 
 830.000000 0.000000 3087.155743 830.000000 7.408238 3171.832292 
 840.000000 0.000000 3087.155743 840.000000 7.408238 3171.832292 
 850.000000 0.000000 3087.155743 850.000000 7.408238 3171.832292 
 860.000000 0.000000 3087.155743 860.000000 7.408238 3171.832292 
 870.000000 0.000000 3087.155743 870.000000 7.408238 3171.832292 
 880.000000 0.000000 3087.155743 880.000000 7.408238 3171.832292 
 890.000000 0.000000 3087.155743 890.000000 7.408238 3171.832292 
 900.000000 0.000000 3087.155743 900.000000 7.408238 3171.832292 
 910.000000 0.000000 3087.155743 910.000000 7.408238 3171.832292 
 920.000000 0.000000 3087.155743 920.000000 7.408238 3171.832292 
 930.000000 0.000000 3087.155743 930.000000 7.408238 3171.832292 
 940.000000 0.000000 3087.155743 940.000000 7.408238 3171.832292 
 950.000000 0.000000 3087.155743 950.000000 7.408238 3171.832292 
 960.000000 0.000000 3087.155743 960.000000 7.408238 3171.832292 
 970.000000 0.000000 3087.155743 970.000000 7.408238 3171.832292 
 980.000000 0.000000 3087.155743 980.000000 7.408238 3171.832292 
 990.000000 0.000000 3087.155743 990.000000 7.408238 3171.832292 
 1000.000000 0.000000 3087.155743 1000.000000 7.408238 3171.832292 

 0.000000 10.000000 3086.284185 0.000000 17.408238 3170.960735 
 10.000000 10.000000 3086.284185 10.000000 17.408238 3170.960735 
 20.000000 10.000000 3086.284185 20.000000 17.408238 3170.960735 
 30.000000 10.000000 3086.284185 30.000000 17.408238 3170.960735 
 40.000000 10.000000 3086.284185 40.000000 17.408238 3170.960735 
 50.000000 10.000000 3086.284185 50.000000 17.408238 3170.960735 
 60.000000 10.000000 3086.284185 60.000000 17.408238 3170.960735 
 70.000000 10.000000 3086.284185 70.000000 17.408238 3170.960735 
 80.000000 10.000000 3086.284185 80.000000 17.408238 3170.960735 
 90.000000 10.000000 3086.284185 90.000000 17.408238 3170.960735 
 100.000000 10.000000 3086.284185 100.000000 17.408238 3170.960735 
 110.000000 10.000000 3086.284185 110.000000 17.408238 3170.960735 
 120.000000 10.000000 3086.284185 120.000000 17.408238 3170.960735 
 130.000000 10.000000 3086.284185 130.000000 17.408238 3170.960735 
 140.000000 10.000000 3086.284185 140.000000 17.408238 3170.960735 
 150.000000 10.000000 3086.284185 150.000000 17.408238 3170.960735 
 160.000000 10.000000 3086.284185 160.000000 17.408238 3170.960735 
 170.000000 10.000000 3086.284185 170.000000 17.408238 3170.960735 
 180.000000 10.000000 3086.284185 180.000000 17.408238 3170.960735 
 190.000000 10.000000 3086.284185 190.000000 17.408238 3170.960735 
 200.000000 10.000000 3086.284185 200.000000 17.408238 3170.960735 
 210.000000 10.000000 3086.284185 210.000000 17.408238 3170.960735 
 220.000000 10.000000 3086.284185 220.000000 17.408238 3170.960735 
 230.000000 10.000000 3086.284185 230.000000 17.408238 3170.960735 
 240.000000 10.000000 3086.284185 240.000000 17.408238 3170.960735 
 250.000000 10.000000 3086.284185 250.000000 17.408238 3170.960735 
 260.000000 10.000000 3086.284185 260.000000 17.408238 3170.960735 
 270.000000 10.000000 3086.284185 270.000000 17.408238 3170.960735 
 280.000000 10.000000 3086.284185 280.000000 17.408238 3170.960735 
 290.000000 10.000000 3086.284185 290.000000 17.408238 3170.960735 
 300.000000 10.000000 3086.284185 300.000000 17.408238 3170.960735 
 310.000000 10.000000 3086.284185 310.000000 17.408238 3170.960735 
 320.000000 10.000000 3086.284185 320.000000 17.408238 3170.960735 
 330.000000 10.000000 3086.284185 330.000000 17.408238 3170.960735 
 340.000000 10.000000 3086.284185 340.000000 17.408238 3170.960735 
 350.000000 10.000000 3086.284185 350.000000 17.408238 3170.960735 
 360.000000 10.000000 3086.284185 360.000000 17.408238 3170.960735 
 370.000000 10.000000 3086.284185 370.000000 17.408238 3170.960735 
 380.000000 10.000000 3086.284185 380.000000 17.408238 3170.960735 
 390.000000 10.000000 3086.284185 390.000000 17.408238 3170.960735 
 400.000000 10.000000 3086.284185 400.000000 17.408238 3170.960735 
 410.000000 10.000000 3086.284185 410.000000 17.408238 3170.960735 
 420.000000 10.000000 3086.284185 420.000000 17.408238 3170.960735 
 430.000000 10.000000 3086.284185 430.000000 17.408238 3170.960735 
 440.000000 10.000000 3086.284185 440.000000 17.408238 3170.960735 
 450.000000 10.000000 3086.284185 450.000000 17.408238 3170.960735 
 460.000000 10.000000 3086.284185 460.000000 17.408238 3170.960735 
 470.000000 10.000000 3086.284185 470.000000 17.408238 3170.960735 
 480.000000 10.000000 3086.284185 480.000000 17.408238 3170.960735 
 490.000000 10.000000 3086.284185 490.000000 17.408238 3170.960735 
 500.000000 10.000000 3086.284185 500.000000 17.408238 3170.960735 
 510.000000 10.000000 3086.284185 510.000000 17.408238 3170.960735 
 520.000000 10.000000 3086.284185 520.000000 17.408238 3170.960735 
 530.000000 10.000000 3086.284185 530.000000 17.408238 3170.960735 
 540.000000 10.000000 3086.284185 540.000000 17.408238 3170.960735 
 550.000000 10.000000 3086.284185 550.000000 17.408238 3170.960735 
 560.000000 10.000000 3086.284185 560.000000 17.408238 3170.960735 
 570.000000 10.000000 3086.284185 570.000000 17.408238 3170.960735 
 580.000000 10.000000 3086.284185 580.000000 17.408238 3170.960735 
 590.000000 10.000000 3086.284185 590.000000 17.408238 3170.960735 
 600.000000 10.000000 3086.284185 600.000000 17.408238 3170.960735 
 610.000000 10.000000 3086.284185 610.000000 17.408238 3170.960735 
 620.000000 10.000000 3086.284185 620.000000 17.408238 3170.960735 
 630.000000 10.000000 3086.284185 630.000000 17.408238 3170.960735 
 640.000000 10.000000 3086.284185 640.000000 17.408238 3170.960735 
 650.000000 10.000000 3086.284185 650.000000 17.408238 3170.960735 
 660.000000 10.000000 3086.284185 660.000000 17.408238 3170.960735 
 670.000000 10.000000 3086.284185 670.000000 17.408238 3170.960735 
 680.000000 10.000000 3086.284185 680.000000 17.408238 3170.960735 
 690.000000 10.000000 3086.284185 690.000000 17.408238 3170.960735 
 700.000000 10.000000 3086.284185 700.000000 17.408238 3170.960735 
 710.000000 10.000000 3086.284185 710.000000 17.408238 3170.960735 
 720.000000 10.000000 3086.284185 720.000000 17.408238 3170.960735 
 730.000000 10.000000 3086.284185 730.000000 17.408238 3170.960735 
 740.000000 10.000000 3086.284185 740.000000 17.408238 3170.960735 
 750.000000 10.000000 3086.284185 750.000000 17.408238 3170.960735 
 760.000000 10.000000 3086.284185 760.000000 17.408238 3170.960735 
 770.000000 10.000000 3086.284185 770.000000 17.408238 3170.960735 
 780.000000 10.000000 3086.284185 780.000000 17.408238 3170.960735 
 790.000000 10.000000 3086.284185 790.000000 17.408238 3170.960735 
 800.000000 10.000000 3086.284185 800.000000 17.408238 3170.960735 
 810.000000 10.000000 3086.284185 810.000000 17.408238 3170.960735 
 820.000000 10.000000 3086.284185 820.000000 17.408238 3170.960735 
 830.000000 10.000000 3086.284185 830.000000 17.408238 3170.960735 
 840.000000 10.000000 3086.284185 840.000000 17.408238 3170.960735 
 850.000000 10.000000 3086.284185 850.000000 17.408238 3170.960735 
 860.000000 10.000000 3086.284185 860.000000 17.408238 3170.960735 
 870.000000 10.000000 3086.284185 870.000000 17.408238 3170.960735 
 880.000000 10.000000 3086.284185 880.000000 17.408238 3170.960735 
 890.000000 10.000000 3086.284185 890.000000 17.408238 3170.960735 
 900.000000 10.000000 3086.284185 900.000000 17.408238 3170.960735 
 910.000000 10.000000 3086.284185 910.000000 17.408238 3170.960735 
 920.000000 10.000000 3086.284185 920.000000 17.408238 3170.960735 
 930.000000 10.000000 3086.284185 930.000000 17.408238 3170.960735 
 940.000000 10.000000 3086.284185 940.000000 17.408238 3170.960735 
 950.000000 10.000000 3086.284185 950.000000 17.408238 3170.960735 
 960.000000 10.000000 3086.284185 960.000000 17.408238 3170.960735 
 970.000000 10.000000 3086.284185 970.000000 17.408238 3170.960735 
 980.000000 10.000000 3086.284185 980.000000 17.408238 3170.960735 
 990.000000 10.000000 3086.284185 990.000000 17.408238 3170.960735 
 1000.000000 10.000000 3086.284185 1000.000000 17.408238 3170.960735 

 0.000000 20.000000 3085.412628 0.000000 27.408238 3170.089177 
 10.000000 20.000000 3085.412628 10.000000 27.408238 3170.089177 
 20.000000 20.000000 3085.412628 20.000000 27.408238 3170.089177 
 30.000000 20.000000 3085.412628 30.000000 27.408238 3170.089177 
 40.000000 20.000000 3085.412628 40.000000 27.408238 3170.089177 
 50.000000 20.000000 3085.412628 50.000000 27.408238 3170.089177 
 60.000000 20.000000 3085.412628 60.000000 27.408238 3170.089177 
 70.000000 20.000000 3085.412628 70.000000 27.408238 3170.089177 
 80.000000 20.000000 3085.412628 80.000000 27.408238 3170.089177 
 90.000000 20.000000 3085.412628 90.000000 27.408238 3170.089177 
 100.000000 20.000000 3085.412628 100.000000 27.408238 3170.089177 
 110.000000 20.000000 3085.412628 110.000000 27.408238 3170.089177 
 120.000000 20.000000 3085.412628 120.000000 27.408238 3170.089177 
 130.000000 20.000000 3085.412628 130.000000 27.408238 3170.089177 
 140.000000 20.000000 3085.412628 140.000000 27.408238 3170.089177 
 150.000000 20.000000 3085.412628 150.000000 27.408238 3170.089177 
 160.000000 20.000000 3085.412628 160.000000 27.408238 3170.089177 
 170.000000 20.000000 3085.412628 170.000000 27.408238 3170.089177 
 180.000000 20.000000 3085.412628 180.000000 27.408238 3170.089177 
 190.000000 20.000000 3085.412628 190.000000 27.408238 3170.089177 
 200.000000 20.000000 3085.412628 200.000000 27.408238 3170.089177 
 210.000000 20.000000 3085.412628 210.000000 27.408238 3170.089177 
 220.000000 20.000000 3085.412628 220.000000 27.408238 3170.089177 
 230.000000 20.000000 3085.412628 230.000000 27.408238 3170.089177 
 240.000000 20.000000 3085.412628 240.000000 27.408238 3170.089177 
 250.000000 20.000000 3085.412628 250.000000 27.408238 3170.089177 
 260.000000 20.000000 3085.412628 260.000000 27.408238 3170.089177 
 270.000000 20.000000 3085.412628 270.000000 27.408238 3170.089177 
 280.000000 20.000000 3085.412628 280.000000 27.408238 3170.089177 
 290.000000 20.000000 3085.412628 290.000000 27.408238 3170.089177 
 300.000000 20.000000 3085.412628 300.000000 27.408238 3170.089177 
 310.000000 20.000000 3085.412628 310.000000 27.408238 3170.089177 
 320.000000 20.000000 3085.412628 320.000000 27.408238 3170.089177 
 330.000000 20.000000 3085.412628 330.000000 27.408238 3170.089177 
 340.000000 20.000000 3085.412628 340.000000 27.408238 3170.089177 
 350.000000 20.000000 3085.412628 350.000000 27.408238 3170.089177 
 360.000000 20.000000 3085.412628 360.000000 27.408238 3170.089177 
 370.000000 20.000000 3085.412628 370.000000 27.408238 3170.089177 
 380.000000 20.000000 3085.412628 380.000000 27.408238 3170.089177 
 390.000000 20.000000 3085.412628 390.000000 27.408238 3170.089177 
 400.000000 20.000000 3085.412628 400.000000 27.408238 3170.089177 
 410.000000 20.000000 3085.412628 410.000000 27.408238 3170.089177 
 420.000000 20.000000 3085.412628 420.000000 27.408238 3170.089177 
 430.000000 20.000000 3085.412628 430.000000 27.408238 3170.089177 
 440.000000 20.000000 3085.412628 440.000000 27.408238 3170.089177 
 450.000000 20.000000 3085.412628 450.000000 27.408238 3170.089177 
 460.000000 20.000000 3085.412628 460.000000 27.408238 3170.089177 
 470.000000 20.000000 3085.412628 470.000000 27.408238 3170.089177 
 480.000000 20.000000 3085.412628 480.000000 27.408238 3170.089177 
 490.000000 20.000000 3085.412628 490.000000 27.408238 3170.089177 
 500.000000 20.000000 3085.412628 500.000000 27.408238 3170.089177 
 510.000000 20.000000 3085.412628 510.000000 27.408238 3170.089177 
 520.000000 20.000000 3085.412628 520.000000 27.408238 3170.089177 
 530.000000 20.000000 3085.412628 530.000000 27.408238 3170.089177 
 540.000000 20.000000 3085.412628 540.000000 27.408238 3170.089177 
 550.000000 20.000000 3085.412628 550.000000 27.408238 3170.089177 
 560.000000 20.000000 3085.412628 560.000000 27.408238 3170.089177 
 570.000000 20.000000 3085.412628 570.000000 27.408238 3170.089177 
 580.000000 20.000000 3085.412628 580.000000 27.408238 3170.089177 
 590.000000 20.000000 3085.412628 590.000000 27.408238 3170.089177 
 600.000000 20.000000 3085.412628 600.000000 27.408238 3170.089177 
 610.000000 20.000000 3085.412628 610.000000 27.408238 3170.089177 
 620.000000 20.000000 3085.412628 620.000000 27.408238 3170.089177 
 630.000000 20.000000 3085.412628 630.000000 27.408238 3170.089177 
 640.000000 20.000000 3085.412628 640.000000 27.408238 3170.089177 
 650.000000 20.000000 3085.412628 650.000000 27.408238 3170.089177 
 660.000000 20.000000 3085.412628 660.000000 27.408238 3170.089177 
 670.000000 20.000000 3085.412628 670.000000 27.408238 3170.089177 
 680.000000 20.000000 3085.412628 680.000000 27.408238 3170.089177 
 690.000000 20.000000 3085.412628 690.000000 27.408238 3170.089177 
 700.000000 20.000000 3085.412628 700.000000 27.408238 3170.089177 
 710.000000 20.000000 3085.412628 710.000000 27.408238 3170.089177 
 720.000000 20.000000 3085.412628 720.000000 27.408238 3170.089177 
 730.000000 20.000000 3085.412628 730.000000 27.408238 3170.089177 
 740.000000 20.000000 3085.412628 740.000000 27.408238 3170.089177 
 750.000000 20.000000 3085.412628 750.000000 27.408238 3170.089177 
 760.000000 20.000000 3085.412628 760.000000 27.408238 3170.089177 
 770.000000 20.000000 3085.412628 770.000000 27.408238 3170.089177 
 780.000000 20.000000 3085.412628 780.000000 27.408238 3170.089177 
 790.000000 20.000000 3085.412628 790.000000 27.408238 3170.089177 
 800.000000 20.000000 3085.412628 800.000000 27.408238 3170.089177 
 810.000000 20.000000 3085.412628 810.000000 27.408238 3170.089177 
 820.000000 20.000000 3085.412628 820.000000 27.408238 3170.089177 
 830.000000 20.000000 3085.412628 830.000000 27.408238 3170.089177 
 840.000000 20.000000 3085.412628 840.000000 27.408238 3170.089177 
 850.000000 20.000000 3085.412628 850.000000 27.408238 3170.089177 
 860.000000 20.000000 3085.412628 860.000000 27.408238 3170.089177 
 870.000000 20.000000 3085.412628 870.000000 27.408238 3170.089177 
 880.000000 20.000000 3085.412628 880.000000 27.408238 3170.089177 
 890.000000 20.000000 3085.412628 890.000000 27.408238 3170.089177 
 900.000000 20.000000 3085.412628 900.000000 27.408238 3170.089177 
 910.000000 20.000000 3085.412628 910.000000 27.408238 3170.089177 
 920.000000 20.000000 3085.412628 920.000000 27.408238 3170.089177 
 930.000000 20.000000 3085.412628 930.000000 27.408238 3170.089177 
 940.000000 20.000000 3085.412628 940.000000 27.408238 3170.089177 
 950.000000 20.000000 3085.412628 950.000000 27.408238 3170.089177 
 960.000000 20.000000 3085.412628 960.000000 27.408238 3170.089177 
 970.000000 20.000000 3085.412628 970.000000 27.408238 3170.089177 
 980.000000 20.000000 3085.412628 980.000000 27.408238 3170.089177 
 990.000000 20.000000 3085.412628 990.000000 27.408238 3170.089177 
 1000.000000 20.000000 3085.412628 1000.000000 27.408238 3170.089177 

 0.000000 30.000000 3084.541070 0.000000 37.408238 3169.217620 
 10.000000 30.000000 3084.541070 10.000000 37.408238 3169.217620 
 20.000000 30.000000 3084.541070 20.000000 37.408238 3169.217620 
 30.000000 30.000000 3084.541070 30.000000 37.408238 3169.217620 
 40.000000 30.000000 3084.541070 40.000000 37.408238 3169.217620 
 50.000000 30.000000 3084.541070 50.000000 37.408238 3169.217620 
 60.000000 30.000000 3084.541070 60.000000 37.408238 3169.217620 
 70.000000 30.000000 3084.541070 70.000000 37.408238 3169.217620 
 80.000000 30.000000 3084.541070 80.000000 37.408238 3169.217620 
 90.000000 30.000000 3084.541070 90.000000 37.408238 3169.217620 
 100.000000 30.000000 3084.541070 100.000000 37.408238 3169.217620 
 110.000000 30.000000 3084.541070 110.000000 37.408238 3169.217620 
 120.000000 30.000000 3084.541070 120.000000 37.408238 3169.217620 
 130.000000 30.000000 3084.541070 130.000000 37.408238 3169.217620 
 140.000000 30.000000 3084.541070 140.000000 37.408238 3169.217620 
 150.000000 30.000000 3084.541070 150.000000 37.408238 3169.217620 
 160.000000 30.000000 3084.541070 160.000000 37.408238 3169.217620 
 170.000000 30.000000 3084.541070 170.000000 37.408238 3169.217620 
 180.000000 30.000000 3084.541070 180.000000 37.408238 3169.217620 
 190.000000 30.000000 3084.541070 190.000000 37.408238 3169.217620 
 200.000000 30.000000 3084.541070 200.000000 37.408238 3169.217620 
 210.000000 30.000000 3084.541070 210.000000 37.408238 3169.217620 
 220.000000 30.000000 3084.541070 220.000000 37.408238 3169.217620 
 230.000000 30.000000 3084.541070 230.000000 37.408238 3169.217620 
 240.000000 30.000000 3084.541070 240.000000 37.408238 3169.217620 
 250.000000 30.000000 3084.541070 250.000000 37.408238 3169.217620 
 260.000000 30.000000 3084.541070 260.000000 37.408238 3169.217620 
 270.000000 30.000000 3084.541070 270.000000 37.408238 3169.217620 
 280.000000 30.000000 3084.541070 280.000000 37.408238 3169.217620 
 290.000000 30.000000 3084.541070 290.000000 37.408238 3169.217620 
 300.000000 30.000000 3084.541070 300.000000 37.408238 3169.217620 
 310.000000 30.000000 3084.541070 310.000000 37.408238 3169.217620 
 320.000000 30.000000 3084.541070 320.000000 37.408238 3169.217620 
 330.000000 30.000000 3084.541070 330.000000 37.408238 3169.217620 
 340.000000 30.000000 3084.541070 340.000000 37.408238 3169.217620 
 350.000000 30.000000 3084.541070 350.000000 37.408238 3169.217620 
 360.000000 30.000000 3084.541070 360.000000 37.408238 3169.217620 
 370.000000 30.000000 3084.541070 370.000000 37.408238 3169.217620 
 380.000000 30.000000 3084.541070 380.000000 37.408238 3169.217620 
 390.000000 30.000000 3084.541070 390.000000 37.408238 3169.217620 
 400.000000 30.000000 3084.541070 400.000000 37.408238 3169.217620 
 410.000000 30.000000 3084.541070 410.000000 37.408238 3169.217620 
 420.000000 30.000000 3084.541070 420.000000 37.408238 3169.217620 
 430.000000 30.000000 3084.541070 430.000000 37.408238 3169.217620 
 440.000000 30.000000 3084.541070 440.000000 37.408238 3169.217620 
 450.000000 30.000000 3084.541070 450.000000 37.408238 3169.217620 
 460.000000 30.000000 3084.541070 460.000000 37.408238 3169.217620 
 470.000000 30.000000 3084.541070 470.000000 37.408238 3169.217620 
 480.000000 30.000000 3084.541070 480.000000 37.408238 3169.217620 
 490.000000 30.000000 3084.541070 490.000000 37.408238 3169.217620 
 500.000000 30.000000 3084.541070 500.000000 37.408238 3169.217620 
 510.000000 30.000000 3084.541070 510.000000 37.408238 3169.217620 
 520.000000 30.000000 3084.541070 520.000000 37.408238 3169.217620 
 530.000000 30.000000 3084.541070 530.000000 37.408238 3169.217620 
 540.000000 30.000000 3084.541070 540.000000 37.408238 3169.217620 
 550.000000 30.000000 3084.541070 550.000000 37.408238 3169.217620 
 560.000000 30.000000 3084.541070 560.000000 37.408238 3169.217620 
 570.000000 30.000000 3084.541070 570.000000 37.408238 3169.217620 
 580.000000 30.000000 3084.541070 580.000000 37.408238 3169.217620 
 590.000000 30.000000 3084.541070 590.000000 37.408238 3169.217620 
 600.000000 30.000000 3084.541070 600.000000 37.408238 3169.217620 
 610.000000 30.000000 3084.541070 610.000000 37.408238 3169.217620 
 620.000000 30.000000 3084.541070 620.000000 37.408238 3169.217620 
 630.000000 30.000000 3084.541070 630.000000 37.408238 3169.217620 
 640.000000 30.000000 3084.541070 640.000000 37.408238 3169.217620 
 650.000000 30.000000 3084.541070 650.000000 37.408238 3169.217620 
 660.000000 30.000000 3084.541070 660.000000 37.408238 3169.217620 
 670.000000 30.000000 3084.541070 670.000000 37.408238 3169.217620 
 680.000000 30.000000 3084.541070 680.000000 37.408238 3169.217620 
 690.000000 30.000000 3084.541070 690.000000 37.408238 3169.217620 
 700.000000 30.000000 3084.541070 700.000000 37.408238 3169.217620 
 710.000000 30.000000 3084.541070 710.000000 37.408238 3169.217620 
 720.000000 30.000000 3084.541070 720.000000 37.408238 3169.217620 
 730.000000 30.000000 3084.541070 730.000000 37.408238 3169.217620 
 740.000000 30.000000 3084.541070 740.000000 37.408238 3169.217620 
 750.000000 30.000000 3084.541070 750.000000 37.408238 3169.217620 
 760.000000 30.000000 3084.541070 760.000000 37.408238 3169.217620 
 770.000000 30.000000 3084.541070 770.000000 37.408238 3169.217620 
 780.000000 30.000000 3084.541070 780.000000 37.408238 3169.217620 
 790.000000 30.000000 3084.541070 790.000000 37.408238 3169.217620 
 800.000000 30.000000 3084.541070 800.000000 37.408238 3169.217620 
 810.000000 30.000000 3084.541070 810.000000 37.408238 3169.217620 
 820.000000 30.000000 3084.541070 820.000000 37.408238 3169.217620 
 830.000000 30.000000 3084.541070 830.000000 37.408238 3169.217620 
 840.000000 30.000000 3084.541070 840.000000 37.408238 3169.217620 
 850.000000 30.000000 3084.541070 850.000000 37.408238 3169.217620 
 860.000000 30.000000 3084.541070 860.000000 37.408238 3169.217620 
 870.000000 30.000000 3084.541070 870.000000 37.408238 3169.217620 
 880.000000 30.000000 3084.541070 880.000000 37.408238 3169.217620 
 890.000000 30.000000 3084.541070 890.000000 37.408238 3169.217620 
 900.000000 30.000000 3084.541070 900.000000 37.408238 3169.217620 
 910.000000 30.000000 3084.541070 910.000000 37.408238 3169.217620 
 920.000000 30.000000 3084.541070 920.000000 37.408238 3169.217620 
 930.000000 30.000000 3084.541070 930.000000 37.408238 3169.217620 
 940.000000 30.000000 3084.541070 940.000000 37.408238 3169.217620 
 950.000000 30.000000 3084.541070 950.000000 37.408238 3169.217620 
 960.000000 30.000000 3084.541070 960.000000 37.408238 3169.217620 
 970.000000 30.000000 3084.541070 970.000000 37.408238 3169.217620 
 980.000000 30.000000 3084.541070 980.000000 37.408238 3169.217620 
 990.000000 30.000000 3084.541070 990.000000 37.408238 3169.217620 
 1000.000000 30.000000 3084.541070 1000.000000 37.408238 3169.217620 

 0.000000 40.000000 3083.669513 0.000000 47.408238 3168.346062 
 10.000000 40.000000 3083.669513 10.000000 47.408238 3168.346062 
 20.000000 40.000000 3083.669513 20.000000 47.408238 3168.346062 
 30.000000 40.000000 3083.669513 30.000000 47.408238 3168.346062 
 40.000000 40.000000 3083.669513 40.000000 47.408238 3168.346062 
 50.000000 40.000000 3083.669513 50.000000 47.408238 3168.346062 
 60.000000 40.000000 3083.669513 60.000000 47.408238 3168.346062 
 70.000000 40.000000 3083.669513 70.000000 47.408238 3168.346062 
 80.000000 40.000000 3083.669513 80.000000 47.408238 3168.346062 
 90.000000 40.000000 3083.669513 90.000000 47.408238 3168.346062 
 100.000000 40.000000 3083.669513 100.000000 47.408238 3168.346062 
 110.000000 40.000000 3083.669513 110.000000 47.408238 3168.346062 
 120.000000 40.000000 3083.669513 120.000000 47.408238 3168.346062 
 130.000000 40.000000 3083.669513 130.000000 47.408238 3168.346062 
 140.000000 40.000000 3083.669513 140.000000 47.408238 3168.346062 
 150.000000 40.000000 3083.669513 150.000000 47.408238 3168.346062 
 160.000000 40.000000 3083.669513 160.000000 47.408238 3168.346062 
 170.000000 40.000000 3083.669513 170.000000 47.408238 3168.346062 
 180.000000 40.000000 3083.669513 180.000000 47.408238 3168.346062 
 190.000000 40.000000 3083.669513 190.000000 47.408238 3168.346062 
 200.000000 40.000000 3083.669513 200.000000 47.408238 3168.346062 
 210.000000 40.000000 3083.669513 210.000000 47.408238 3168.346062 
 220.000000 40.000000 3083.669513 220.000000 47.408238 3168.346062 
 230.000000 40.000000 3083.669513 230.000000 47.408238 3168.346062 
 240.000000 40.000000 3083.669513 240.000000 47.408238 3168.346062 
 250.000000 40.000000 3083.669513 250.000000 47.408238 3168.346062 
 260.000000 40.000000 3083.669513 260.000000 47.408238 3168.346062 
 270.000000 40.000000 3083.669513 270.000000 47.408238 3168.346062 
 280.000000 40.000000 3083.669513 280.000000 47.408238 3168.346062 
 290.000000 40.000000 3083.669513 290.000000 47.408238 3168.346062 
 300.000000 40.000000 3083.669513 300.000000 47.408238 3168.346062 
 310.000000 40.000000 3083.669513 310.000000 47.408238 3168.346062 
 320.000000 40.000000 3083.669513 320.000000 47.408238 3168.346062 
 330.000000 40.000000 3083.669513 330.000000 47.408238 3168.346062 
 340.000000 40.000000 3083.669513 340.000000 47.408238 3168.346062 
 350.000000 40.000000 3083.669513 350.000000 47.408238 3168.346062 
 360.000000 40.000000 3083.669513 360.000000 47.408238 3168.346062 
 370.000000 40.000000 3083.669513 370.000000 47.408238 3168.346062 
 380.000000 40.000000 3083.669513 380.000000 47.408238 3168.346062 
 390.000000 40.000000 3083.669513 390.000000 47.408238 3168.346062 