-- Tilted grid generated for pflotran runs 
SPECGRID 
 23 25 21 / 

COORD 
 0 0 3183.4628384838206 0 0 3098.4628384838206 
 100 0 3183.4628384838206 100 0 3098.4628384838206 
 200 0 3183.4628384838206 200 0 3098.4628384838206 
 300 0 3183.4628384838206 300 0 3098.4628384838206 
 350 0 3183.4628384838206 350 0 3098.4628384838206 
 400 0 3183.4628384838206 400 0 3098.4628384838206 
 450 0 3183.4628384838206 450 0 3098.4628384838206 
 475 0 3183.4628384838206 475 0 3098.4628384838206 
 493 0 3183.4628384838206 493 0 3098.4628384838206 
 510 0 3183.4628384838206 510 0 3098.4628384838206 
 526 0 3183.4628384838206 526 0 3098.4628384838206 
 542 0 3183.4628384838206 542 0 3098.4628384838206 
 558 0 3183.4628384838206 558 0 3098.4628384838206 
 574 0 3183.4628384838206 574 0 3098.4628384838206 
 590 0 3183.4628384838206 590 0 3098.4628384838206 
 607 0 3183.4628384838206 607 0 3098.4628384838206 
 625 0 3183.4628384838206 625 0 3098.4628384838206 
 650 0 3183.4628384838206 650 0 3098.4628384838206 
 700 0 3183.4628384838206 700 0 3098.4628384838206 
 750 0 3183.4628384838206 750 0 3098.4628384838206 
 800 0 3183.4628384838206 800 0 3098.4628384838206 
 900 0 3183.4628384838206 900 0 3098.4628384838206 
 1000 0 3183.4628384838206 1000 0 3098.4628384838206 
 1100 0 3183.4628384838206 1100 0 3098.4628384838206 
 0 1000 3096.3070957361624 0 1000 3011.3070957361624 
 100 1000 3096.3070957361624 100 1000 3011.3070957361624 
 200 1000 3096.3070957361624 200 1000 3011.3070957361624 
 300 1000 3096.3070957361624 300 1000 3011.3070957361624 
 350 1000 3096.3070957361624 350 1000 3011.3070957361624 
 400 1000 3096.3070957361624 400 1000 3011.3070957361624 
 450 1000 3096.3070957361624 450 1000 3011.3070957361624 
 475 1000 3096.3070957361624 475 1000 3011.3070957361624 
 493 1000 3096.3070957361624 493 1000 3011.3070957361624 
 510 1000 3096.3070957361624 510 1000 3011.3070957361624 
 526 1000 3096.3070957361624 526 1000 3011.3070957361624 
 542 1000 3096.3070957361624 542 1000 3011.3070957361624 
 558 1000 3096.3070957361624 558 1000 3011.3070957361624 
 574 1000 3096.3070957361624 574 1000 3011.3070957361624 
 590 1000 3096.3070957361624 590 1000 3011.3070957361624 
 607 1000 3096.3070957361624 607 1000 3011.3070957361624 
 625 1000 3096.3070957361624 625 1000 3011.3070957361624 
 650 1000 3096.3070957361624 650 1000 3011.3070957361624 
 700 1000 3096.3070957361624 700 1000 3011.3070957361624 
 750 1000 3096.3070957361624 750 1000 3011.3070957361624 
 800 1000 3096.3070957361624 800 1000 3011.3070957361624 
 900 1000 3096.3070957361624 900 1000 3011.3070957361624 
 1000 1000 3096.3070957361624 1000 1000 3011.3070957361624 
 1100 1000 3096.3070957361624 1100 1000 3011.3070957361624 
 0 1005 3095.871317022424 0 1005 3010.871317022424 
 100 1005 3095.871317022424 100 1005 3010.871317022424 
 200 1005 3095.871317022424 200 1005 3010.871317022424 
 300 1005 3095.871317022424 300 1005 3010.871317022424 
 350 1005 3095.871317022424 350 1005 3010.871317022424 
 400 1005 3095.871317022424 400 1005 3010.871317022424 
 450 1005 3095.871317022424 450 1005 3010.871317022424 
 475 1005 3095.871317022424 475 1005 3010.871317022424 
 493 1005 3095.871317022424 493 1005 3010.871317022424 
 510 1005 3095.871317022424 510 1005 3010.871317022424 
 526 1005 3095.871317022424 526 1005 3010.871317022424 
 542 1005 3095.871317022424 542 1005 3010.871317022424 
 558 1005 3095.871317022424 558 1005 3010.871317022424 
 574 1005 3095.871317022424 574 1005 3010.871317022424 
 590 1005 3095.871317022424 590 1005 3010.871317022424 
 607 1005 3095.871317022424 607 1005 3010.871317022424 
 625 1005 3095.871317022424 625 1005 3010.871317022424 
 650 1005 3095.871317022424 650 1005 3010.871317022424 
 700 1005 3095.871317022424 700 1005 3010.871317022424 
 750 1005 3095.871317022424 750 1005 3010.871317022424 
 800 1005 3095.871317022424 800 1005 3010.871317022424 
 900 1005 3095.871317022424 900 1005 3010.871317022424 
 1000 1005 3095.871317022424 1000 1005 3010.871317022424 
 1100 1005 3095.871317022424 1100 1005 3010.871317022424 
 0 1105 3087.155742747658 0 1105 3002.155742747658 
 100 1105 3087.155742747658 100 1105 3002.155742747658 
 200 1105 3087.155742747658 200 1105 3002.155742747658 
 300 1105 3087.155742747658 300 1105 3002.155742747658 
 350 1105 3087.155742747658 350 1105 3002.155742747658 
 400 1105 3087.155742747658 400 1105 3002.155742747658 
 450 1105 3087.155742747658 450 1105 3002.155742747658 
 475 1105 3087.155742747658 475 1105 3002.155742747658 
 493 1105 3087.155742747658 493 1105 3002.155742747658 
 510 1105 3087.155742747658 510 1105 3002.155742747658 
 526 1105 3087.155742747658 526 1105 3002.155742747658 
 542 1105 3087.155742747658 542 1105 3002.155742747658 
 558 1105 3087.155742747658 558 1105 3002.155742747658 
 574 1105 3087.155742747658 574 1105 3002.155742747658 
 590 1105 3087.155742747658 590 1105 3002.155742747658 
 607 1105 3087.155742747658 607 1105 3002.155742747658 
 625 1105 3087.155742747658 625 1105 3002.155742747658 
 650 1105 3087.155742747658 650 1105 3002.155742747658 
 700 1105 3087.155742747658 700 1105 3002.155742747658 
 750 1105 3087.155742747658 750 1105 3002.155742747658 
 800 1105 3087.155742747658 800 1105 3002.155742747658 
 900 1105 3087.155742747658 900 1105 3002.155742747658 
 1000 1105 3087.155742747658 1000 1105 3002.155742747658 
 1100 1105 3087.155742747658 1100 1105 3002.155742747658 
 0 1205 3078.4401684728928 0 1205 2993.4401684728928 
 100 1205 3078.4401684728928 100 1205 2993.4401684728928 
 200 1205 3078.4401684728928 200 1205 2993.4401684728928 
 300 1205 3078.4401684728928 300 1205 2993.4401684728928 
 350 1205 3078.4401684728928 350 1205 2993.4401684728928 
 400 1205 3078.4401684728928 400 1205 2993.4401684728928 
 450 1205 3078.4401684728928 450 1205 2993.4401684728928 
 475 1205 3078.4401684728928 475 1205 2993.4401684728928 
 493 1205 3078.4401684728928 493 1205 2993.4401684728928 
 510 1205 3078.4401684728928 510 1205 2993.4401684728928 
 526 1205 3078.4401684728928 526 1205 2993.4401684728928 
 542 1205 3078.4401684728928 542 1205 2993.4401684728928 
 558 1205 3078.4401684728928 558 1205 2993.4401684728928 
 574 1205 3078.4401684728928 574 1205 2993.4401684728928 
 590 1205 3078.4401684728928 590 1205 2993.4401684728928 
 607 1205 3078.4401684728928 607 1205 2993.4401684728928 
 625 1205 3078.4401684728928 625 1205 2993.4401684728928 
 650 1205 3078.4401684728928 650 1205 2993.4401684728928 
 700 1205 3078.4401684728928 700 1205 2993.4401684728928 
 750 1205 3078.4401684728928 750 1205 2993.4401684728928 
 800 1205 3078.4401684728928 800 1205 2993.4401684728928 
 900 1205 3078.4401684728928 900 1205 2993.4401684728928 
 1000 1205 3078.4401684728928 1000 1205 2993.4401684728928 
 1100 1205 3078.4401684728928 1100 1205 2993.4401684728928 
 0 1305 3069.724594198127 0 1305 2984.724594198127 
 100 1305 3069.724594198127 100 1305 2984.724594198127 
 200 1305 3069.724594198127 200 1305 2984.724594198127 
 300 1305 3069.724594198127 300 1305 2984.724594198127 
 350 1305 3069.724594198127 350 1305 2984.724594198127 
 400 1305 3069.724594198127 400 1305 2984.724594198127 
 450 1305 3069.724594198127 450 1305 2984.724594198127 
 475 1305 3069.724594198127 475 1305 2984.724594198127 
 493 1305 3069.724594198127 493 1305 2984.724594198127 
 510 1305 3069.724594198127 510 1305 2984.724594198127 
 526 1305 3069.724594198127 526 1305 2984.724594198127 
 542 1305 3069.724594198127 542 1305 2984.724594198127 
 558 1305 3069.724594198127 558 1305 2984.724594198127 
 574 1305 3069.724594198127 574 1305 2984.724594198127 
 590 1305 3069.724594198127 590 1305 2984.724594198127 
 607 1305 3069.724594198127 607 1305 2984.724594198127 
 625 1305 3069.724594198127 625 1305 2984.724594198127 
 650 1305 3069.724594198127 650 1305 2984.724594198127 
 700 1305 3069.724594198127 700 1305 2984.724594198127 
 750 1305 3069.724594198127 750 1305 2984.724594198127 
 800 1305 3069.724594198127 800 1305 2984.724594198127 
 900 1305 3069.724594198127 900 1305 2984.724594198127 
 1000 1305 3069.724594198127 1000 1305 2984.724594198127 
 1100 1305 3069.724594198127 1100 1305 2984.724594198127 
 0 1355 3065.3668070607437 0 1355 2980.3668070607437 
 100 1355 3065.3668070607437 100 1355 2980.3668070607437 
 200 1355 3065.3668070607437 200 1355 2980.3668070607437 
 300 1355 3065.3668070607437 300 1355 2980.3668070607437 
 350 1355 3065.3668070607437 350 1355 2980.3668070607437 
 400 1355 3065.3668070607437 400 1355 2980.3668070607437 
 450 1355 3065.3668070607437 450 1355 2980.3668070607437 
 475 1355 3065.3668070607437 475 1355 2980.3668070607437 
 493 1355 3065.3668070607437 493 1355 2980.3668070607437 
 510 1355 3065.3668070607437 510 1355 2980.3668070607437 
 526 1355 3065.3668070607437 526 1355 2980.3668070607437 
 542 1355 3065.3668070607437 542 1355 2980.3668070607437 
 558 1355 3065.3668070607437 558 1355 2980.3668070607437 
 574 1355 3065.3668070607437 574 1355 2980.3668070607437 
 590 1355 3065.3668070607437 590 1355 2980.3668070607437 
 607 1355 3065.3668070607437 607 1355 2980.3668070607437 
 625 1355 3065.3668070607437 625 1355 2980.3668070607437 
 650 1355 3065.3668070607437 650 1355 2980.3668070607437 
 700 1355 3065.3668070607437 700 1355 2980.3668070607437 
 750 1355 3065.3668070607437 750 1355 2980.3668070607437 
 800 1355 3065.3668070607437 800 1355 2980.3668070607437 
 900 1355 3065.3668070607437 900 1355 2980.3668070607437 
 1000 1355 3065.3668070607437 1000 1355 2980.3668070607437 
 1100 1355 3065.3668070607437 1100 1355 2980.3668070607437 
 0 1405 3061.009019923361 0 1405 2976.009019923361 
 100 1405 3061.009019923361 100 1405 2976.009019923361 
 200 1405 3061.009019923361 200 1405 2976.009019923361 
 300 1405 3061.009019923361 300 1405 2976.009019923361 
 350 1405 3061.009019923361 350 1405 2976.009019923361 
 400 1405 3061.009019923361 400 1405 2976.009019923361 
 450 1405 3061.009019923361 450 1405 2976.009019923361 
 475 1405 3061.009019923361 475 1405 2976.009019923361 
 493 1405 3061.009019923361 493 1405 2976.009019923361 
 510 1405 3061.009019923361 510 1405 2976.009019923361 
 526 1405 3061.009019923361 526 1405 2976.009019923361 
 542 1405 3061.009019923361 542 1405 2976.009019923361 
 558 1405 3061.009019923361 558 1405 2976.009019923361 
 574 1405 3061.009019923361 574 1405 2976.009019923361 
 590 1405 3061.009019923361 590 1405 2976.009019923361 
 607 1405 3061.009019923361 607 1405 2976.009019923361 
 625 1405 3061.009019923361 625 1405 2976.009019923361 
 650 1405 3061.009019923361 650 1405 2976.009019923361 
 700 1405 3061.009019923361 700 1405 2976.009019923361 
 750 1405 3061.009019923361 750 1405 2976.009019923361 
 800 1405 3061.009019923361 800 1405 2976.009019923361 
 900 1405 3061.009019923361 900 1405 2976.009019923361 
 1000 1405 3061.009019923361 1000 1405 2976.009019923361 
 1100 1405 3061.009019923361 1100 1405 2976.009019923361 
 0 1455 3056.651232785978 0 1455 2971.651232785978 
 100 1455 3056.651232785978 100 1455 2971.651232785978 
 200 1455 3056.651232785978 200 1455 2971.651232785978 
 300 1455 3056.651232785978 300 1455 2971.651232785978 
 350 1455 3056.651232785978 350 1455 2971.651232785978 
 400 1455 3056.651232785978 400 1455 2971.651232785978 
 450 1455 3056.651232785978 450 1455 2971.651232785978 
 475 1455 3056.651232785978 475 1455 2971.651232785978 
 493 1455 3056.651232785978 493 1455 2971.651232785978 
 510 1455 3056.651232785978 510 1455 2971.651232785978 
 526 1455 3056.651232785978 526 1455 2971.651232785978 
 542 1455 3056.651232785978 542 1455 2971.651232785978 
 558 1455 3056.651232785978 558 1455 2971.651232785978 
 574 1455 3056.651232785978 574 1455 2971.651232785978 
 590 1455 3056.651232785978 590 1455 2971.651232785978 
 607 1455 3056.651232785978 607 1455 2971.651232785978 
 625 1455 3056.651232785978 625 1455 2971.651232785978 
 650 1455 3056.651232785978 650 1455 2971.651232785978 
 700 1455 3056.651232785978 700 1455 2971.651232785978 
 750 1455 3056.651232785978 750 1455 2971.651232785978 
 800 1455 3056.651232785978 800 1455 2971.651232785978 
 900 1455 3056.651232785978 900 1455 2971.651232785978 
 1000 1455 3056.651232785978 1000 1455 2971.651232785978 
 1100 1455 3056.651232785978 1100 1455 2971.651232785978 
 0 1480 3054.4723392172864 0 1480 2969.4723392172864 
 100 1480 3054.4723392172864 100 1480 2969.4723392172864 
 200 1480 3054.4723392172864 200 1480 2969.4723392172864 
 300 1480 3054.4723392172864 300 1480 2969.4723392172864 
 350 1480 3054.4723392172864 350 1480 2969.4723392172864 
 400 1480 3054.4723392172864 400 1480 2969.4723392172864 
 450 1480 3054.4723392172864 450 1480 2969.4723392172864 
 475 1480 3054.4723392172864 475 1480 2969.4723392172864 
 493 1480 3054.4723392172864 493 1480 2969.4723392172864 
 510 1480 3054.4723392172864 510 1480 2969.4723392172864 
 526 1480 3054.4723392172864 526 1480 2969.4723392172864 
 542 1480 3054.4723392172864 542 1480 2969.4723392172864 
 558 1480 3054.4723392172864 558 1480 2969.4723392172864 
 574 1480 3054.4723392172864 574 1480 2969.4723392172864 
 590 1480 3054.4723392172864 590 1480 2969.4723392172864 
 607 1480 3054.4723392172864 607 1480 2969.4723392172864 
 625 1480 3054.4723392172864 625 1480 2969.4723392172864 
 650 1480 3054.4723392172864 650 1480 2969.4723392172864 
 700 1480 3054.4723392172864 700 1480 2969.4723392172864 
 750 1480 3054.4723392172864 750 1480 2969.4723392172864 
 800 1480 3054.4723392172864 800 1480 2969.4723392172864 
 900 1480 3054.4723392172864 900 1480 2969.4723392172864 
 1000 1480 3054.4723392172864 1000 1480 2969.4723392172864 
 1100 1480 3054.4723392172864 1100 1480 2969.4723392172864 
 0 1498 3052.9035358478286 0 1498 2967.9035358478286 
 100 1498 3052.9035358478286 100 1498 2967.9035358478286 
 200 1498 3052.9035358478286 200 1498 2967.9035358478286 
 300 1498 3052.9035358478286 300 1498 2967.9035358478286 
 350 1498 3052.9035358478286 350 1498 2967.9035358478286 
 400 1498 3052.9035358478286 400 1498 2967.9035358478286 
 450 1498 3052.9035358478286 450 1498 2967.9035358478286 
 475 1498 3052.9035358478286 475 1498 2967.9035358478286 
 493 1498 3052.9035358478286 493 1498 2967.9035358478286 
 510 1498 3052.9035358478286 510 1498 2967.9035358478286 
 526 1498 3052.9035358478286 526 1498 2967.9035358478286 
 542 1498 3052.9035358478286 542 1498 2967.9035358478286 
 558 1498 3052.9035358478286 558 1498 2967.9035358478286 
 574 1498 3052.9035358478286 574 1498 2967.9035358478286 
 590 1498 3052.9035358478286 590 1498 2967.9035358478286 
 607 1498 3052.9035358478286 607 1498 2967.9035358478286 
 625 1498 3052.9035358478286 625 1498 2967.9035358478286 
 650 1498 3052.9035358478286 650 1498 2967.9035358478286 
 700 1498 3052.9035358478286 700 1498 2967.9035358478286 
 750 1498 3052.9035358478286 750 1498 2967.9035358478286 
 800 1498 3052.9035358478286 800 1498 2967.9035358478286 
 900 1498 3052.9035358478286 900 1498 2967.9035358478286 
 1000 1498 3052.9035358478286 1000 1498 2967.9035358478286 
 1100 1498 3052.9035358478286 1100 1498 2967.9035358478286 
 0 1515 3051.4218882211185 0 1515 2966.4218882211185 
 100 1515 3051.4218882211185 100 1515 2966.4218882211185 
 200 1515 3051.4218882211185 200 1515 2966.4218882211185 
 300 1515 3051.4218882211185 300 1515 2966.4218882211185 
 350 1515 3051.4218882211185 350 1515 2966.4218882211185 
 400 1515 3051.4218882211185 400 1515 2966.4218882211185 
 450 1515 3051.4218882211185 450 1515 2966.4218882211185 
 475 1515 3051.4218882211185 475 1515 2966.4218882211185 
 493 1515 3051.4218882211185 493 1515 2966.4218882211185 
 510 1515 3051.4218882211185 510 1515 2966.4218882211185 
 526 1515 3051.4218882211185 526 1515 2966.4218882211185 
 542 1515 3051.4218882211185 542 1515 2966.4218882211185 
 558 1515 3051.4218882211185 558 1515 2966.4218882211185 
 574 1515 3051.4218882211185 574 1515 2966.4218882211185 
 590 1515 3051.4218882211185 590 1515 2966.4218882211185 
 607 1515 3051.4218882211185 607 1515 2966.4218882211185 
 625 1515 3051.4218882211185 625 1515 2966.4218882211185 
 650 1515 3051.4218882211185 650 1515 2966.4218882211185 
 700 1515 3051.4218882211185 700 1515 2966.4218882211185 
 750 1515 3051.4218882211185 750 1515 2966.4218882211185 
 800 1515 3051.4218882211185 800 1515 2966.4218882211185 
 900 1515 3051.4218882211185 900 1515 2966.4218882211185 
 1000 1515 3051.4218882211185 1000 1515 2966.4218882211185 
 1100 1515 3051.4218882211185 1100 1515 2966.4218882211185 
 0 1531 3050.027396337156 0 1531 2965.027396337156 
 100 1531 3050.027396337156 100 1531 2965.027396337156 
 200 1531 3050.027396337156 200 1531 2965.027396337156 
 300 1531 3050.027396337156 300 1531 2965.027396337156 
 350 1531 3050.027396337156 350 1531 2965.027396337156 
 400 1531 3050.027396337156 400 1531 2965.027396337156 
 450 1531 3050.027396337156 450 1531 2965.027396337156 
 475 1531 3050.027396337156 475 1531 2965.027396337156 
 493 1531 3050.027396337156 493 1531 2965.027396337156 
 510 1531 3050.027396337156 510 1531 2965.027396337156 
 526 1531 3050.027396337156 526 1531 2965.027396337156 
 542 1531 3050.027396337156 542 1531 2965.027396337156 
 558 1531 3050.027396337156 558 1531 2965.027396337156 
 574 1531 3050.027396337156 574 1531 2965.027396337156 
 590 1531 3050.027396337156 590 1531 2965.027396337156 
 607 1531 3050.027396337156 607 1531 2965.027396337156 
 625 1531 3050.027396337156 625 1531 2965.027396337156 
 650 1531 3050.027396337156 650 1531 2965.027396337156 
 700 1531 3050.027396337156 700 1531 2965.027396337156 
 750 1531 3050.027396337156 750 1531 2965.027396337156 
 800 1531 3050.027396337156 800 1531 2965.027396337156 
 900 1531 3050.027396337156 900 1531 2965.027396337156 
 1000 1531 3050.027396337156 1000 1531 2965.027396337156 
 1100 1531 3050.027396337156 1100 1531 2965.027396337156 
 0 1547 3048.6329044531935 0 1547 2963.6329044531935 
 100 1547 3048.6329044531935 100 1547 2963.6329044531935 
 200 1547 3048.6329044531935 200 1547 2963.6329044531935 
 300 1547 3048.6329044531935 300 1547 2963.6329044531935 
 350 1547 3048.6329044531935 350 1547 2963.6329044531935 
 400 1547 3048.6329044531935 400 1547 2963.6329044531935 
 450 1547 3048.6329044531935 450 1547 2963.6329044531935 
 475 1547 3048.6329044531935 475 1547 2963.6329044531935 
 493 1547 3048.6329044531935 493 1547 2963.6329044531935 
 510 1547 3048.6329044531935 510 1547 2963.6329044531935 
 526 1547 3048.6329044531935 526 1547 2963.6329044531935 
 542 1547 3048.6329044531935 542 1547 2963.6329044531935 
 558 1547 3048.6329044531935 558 1547 2963.6329044531935 
 574 1547 3048.6329044531935 574 1547 2963.6329044531935 
 590 1547 3048.6329044531935 590 1547 2963.6329044531935 
 607 1547 3048.6329044531935 607 1547 2963.6329044531935 
 625 1547 3048.6329044531935 625 1547 2963.6329044531935 
 650 1547 3048.6329044531935 650 1547 2963.6329044531935 
 700 1547 3048.6329044531935 700 1547 2963.6329044531935 
 750 1547 3048.6329044531935 750 1547 2963.6329044531935 
 800 1547 3048.6329044531935 800 1547 2963.6329044531935 
 900 1547 3048.6329044531935 900 1547 2963.6329044531935 
 1000 1547 3048.6329044531935 1000 1547 2963.6329044531935 
 1100 1547 3048.6329044531935 1100 1547 2963.6329044531935 
 0 1563 3047.238412569231 0 1563 2962.238412569231 
 100 1563 3047.238412569231 100 1563 2962.238412569231 
 200 1563 3047.238412569231 200 1563 2962.238412569231 
 300 1563 3047.238412569231 300 1563 2962.238412569231 
 350 1563 3047.238412569231 350 1563 2962.238412569231 
 400 1563 3047.238412569231 400 1563 2962.238412569231 
 450 1563 3047.238412569231 450 1563 2962.238412569231 
 475 1563 3047.238412569231 475 1563 2962.238412569231 
 493 1563 3047.238412569231 493 1563 2962.238412569231 
 510 1563 3047.238412569231 510 1563 2962.238412569231 
 526 1563 3047.238412569231 526 1563 2962.238412569231 
 542 1563 3047.238412569231 542 1563 2962.238412569231 
 558 1563 3047.238412569231 558 1563 2962.238412569231 
 574 1563 3047.238412569231 574 1563 2962.238412569231 
 590 1563 3047.238412569231 590 1563 2962.238412569231 
 607 1563 3047.238412569231 607 1563 2962.238412569231 
 625 1563 3047.238412569231 625 1563 2962.238412569231 
 650 1563 3047.238412569231 650 1563 2962.238412569231 
 700 1563 3047.238412569231 700 1563 2962.238412569231 
 750 1563 3047.238412569231 750 1563 2962.238412569231 
 800 1563 3047.238412569231 800 1563 2962.238412569231 
 900 1563 3047.238412569231 900 1563 2962.238412569231 
 1000 1563 3047.238412569231 1000 1563 2962.238412569231 
 1100 1563 3047.238412569231 1100 1563 2962.238412569231 
 0 1579 3045.8439206852686 0 1579 2960.8439206852686 
 100 1579 3045.8439206852686 100 1579 2960.8439206852686 
 200 1579 3045.8439206852686 200 1579 2960.8439206852686 
 300 1579 3045.8439206852686 300 1579 2960.8439206852686 
 350 1579 3045.8439206852686 350 1579 2960.8439206852686 
 400 1579 3045.8439206852686 400 1579 2960.8439206852686 
 450 1579 3045.8439206852686 450 1579 2960.8439206852686 
 475 1579 3045.8439206852686 475 1579 2960.8439206852686 
 493 1579 3045.8439206852686 493 1579 2960.8439206852686 
 510 1579 3045.8439206852686 510 1579 2960.8439206852686 
 526 1579 3045.8439206852686 526 1579 2960.8439206852686 
 542 1579 3045.8439206852686 542 1579 2960.8439206852686 
 558 1579 3045.8439206852686 558 1579 2960.8439206852686 
 574 1579 3045.8439206852686 574 1579 2960.8439206852686 
 590 1579 3045.8439206852686 590 1579 2960.8439206852686 
 607 1579 3045.8439206852686 607 1579 2960.8439206852686 
 625 1579 3045.8439206852686 625 1579 2960.8439206852686 
 650 1579 3045.8439206852686 650 1579 2960.8439206852686 
 700 1579 3045.8439206852686 700 1579 2960.8439206852686 
 750 1579 3045.8439206852686 750 1579 2960.8439206852686 
 800 1579 3045.8439206852686 800 1579 2960.8439206852686 
 900 1579 3045.8439206852686 900 1579 2960.8439206852686 
 1000 1579 3045.8439206852686 1000 1579 2960.8439206852686 
 1100 1579 3045.8439206852686 1100 1579 2960.8439206852686 
 0 1595 3044.4494288013057 0 1595 2959.4494288013057 
 100 1595 3044.4494288013057 100 1595 2959.4494288013057 
 200 1595 3044.4494288013057 200 1595 2959.4494288013057 
 300 1595 3044.4494288013057 300 1595 2959.4494288013057 
 350 1595 3044.4494288013057 350 1595 2959.4494288013057 
 400 1595 3044.4494288013057 400 1595 2959.4494288013057 
 450 1595 3044.4494288013057 450 1595 2959.4494288013057 
 475 1595 3044.4494288013057 475 1595 2959.4494288013057 
 493 1595 3044.4494288013057 493 1595 2959.4494288013057 
 510 1595 3044.4494288013057 510 1595 2959.4494288013057 
 526 1595 3044.4494288013057 526 1595 2959.4494288013057 
 542 1595 3044.4494288013057 542 1595 2959.4494288013057 
 558 1595 3044.4494288013057 558 1595 2959.4494288013057 
 574 1595 3044.4494288013057 574 1595 2959.4494288013057 
 590 1595 3044.4494288013057 590 1595 2959.4494288013057 
 607 1595 3044.4494288013057 607 1595 2959.4494288013057 
 625 1595 3044.4494288013057 625 1595 2959.4494288013057 
 650 1595 3044.4494288013057 650 1595 2959.4494288013057 
 700 1595 3044.4494288013057 700 1595 2959.4494288013057 
 750 1595 3044.4494288013057 750 1595 2959.4494288013057 
 800 1595 3044.4494288013057 800 1595 2959.4494288013057 
 900 1595 3044.4494288013057 900 1595 2959.4494288013057 
 1000 1595 3044.4494288013057 1000 1595 2959.4494288013057 
 1100 1595 3044.4494288013057 1100 1595 2959.4494288013057 
 0 1612 3042.9677811745955 0 1612 2957.9677811745955 
 100 1612 3042.9677811745955 100 1612 2957.9677811745955 
 200 1612 3042.9677811745955 200 1612 2957.9677811745955 
 300 1612 3042.9677811745955 300 1612 2957.9677811745955 
 350 1612 3042.9677811745955 350 1612 2957.9677811745955 
 400 1612 3042.9677811745955 400 1612 2957.9677811745955 
 450 1612 3042.9677811745955 450 1612 2957.9677811745955 
 475 1612 3042.9677811745955 475 1612 2957.9677811745955 
 493 1612 3042.9677811745955 493 1612 2957.9677811745955 
 510 1612 3042.9677811745955 510 1612 2957.9677811745955 
 526 1612 3042.9677811745955 526 1612 2957.9677811745955 
 542 1612 3042.9677811745955 542 1612 2957.9677811745955 
 558 1612 3042.9677811745955 558 1612 2957.9677811745955 
 574 1612 3042.9677811745955 574 1612 2957.9677811745955 
 590 1612 3042.9677811745955 590 1612 2957.9677811745955 
 607 1612 3042.9677811745955 607 1612 2957.9677811745955 
 625 1612 3042.9677811745955 625 1612 2957.9677811745955 
 650 1612 3042.9677811745955 650 1612 2957.9677811745955 
 700 1612 3042.9677811745955 700 1612 2957.9677811745955 
 750 1612 3042.9677811745955 750 1612 2957.9677811745955 
 800 1612 3042.9677811745955 800 1612 2957.9677811745955 
 900 1612 3042.9677811745955 900 1612 2957.9677811745955 
 1000 1612 3042.9677811745955 1000 1612 2957.9677811745955 
 1100 1612 3042.9677811745955 1100 1612 2957.9677811745955 
 0 1630 3041.3989778051377 0 1630 2956.3989778051377 
 100 1630 3041.3989778051377 100 1630 2956.3989778051377 
 200 1630 3041.3989778051377 200 1630 2956.3989778051377 
 300 1630 3041.3989778051377 300 1630 2956.3989778051377 
 350 1630 3041.3989778051377 350 1630 2956.3989778051377 
 400 1630 3041.3989778051377 400 1630 2956.3989778051377 
 450 1630 3041.3989778051377 450 1630 2956.3989778051377 
 475 1630 3041.3989778051377 475 1630 2956.3989778051377 
 493 1630 3041.3989778051377 493 1630 2956.3989778051377 
 510 1630 3041.3989778051377 510 1630 2956.3989778051377 
 526 1630 3041.3989778051377 526 1630 2956.3989778051377 
 542 1630 3041.3989778051377 542 1630 2956.3989778051377 
 558 1630 3041.3989778051377 558 1630 2956.3989778051377 
 574 1630 3041.3989778051377 574 1630 2956.3989778051377 
 590 1630 3041.3989778051377 590 1630 2956.3989778051377 
 607 1630 3041.3989778051377 607 1630 2956.3989778051377 
 625 1630 3041.3989778051377 625 1630 2956.3989778051377 
 650 1630 3041.3989778051377 650 1630 2956.3989778051377 
 700 1630 3041.3989778051377 700 1630 2956.3989778051377 
 750 1630 3041.3989778051377 750 1630 2956.3989778051377 
 800 1630 3041.3989778051377 800 1630 2956.3989778051377 
 900 1630 3041.3989778051377 900 1630 2956.3989778051377 
 1000 1630 3041.3989778051377 1000 1630 2956.3989778051377 
 1100 1630 3041.3989778051377 1100 1630 2956.3989778051377 
 0 1655 3039.2200842364464 0 1655 2954.2200842364464 
 100 1655 3039.2200842364464 100 1655 2954.2200842364464 
 200 1655 3039.2200842364464 200 1655 2954.2200842364464 
 300 1655 3039.2200842364464 300 1655 2954.2200842364464 
 350 1655 3039.2200842364464 350 1655 2954.2200842364464 
 400 1655 3039.2200842364464 400 1655 2954.2200842364464 
 450 1655 3039.2200842364464 450 1655 2954.2200842364464 
 475 1655 3039.2200842364464 475 1655 2954.2200842364464 
 493 1655 3039.2200842364464 493 1655 2954.2200842364464 
 510 1655 3039.2200842364464 510 1655 2954.2200842364464 
 526 1655 3039.2200842364464 526 1655 2954.2200842364464 
 542 1655 3039.2200842364464 542 1655 2954.2200842364464 
 558 1655 3039.2200842364464 558 1655 2954.2200842364464 
 574 1655 3039.2200842364464 574 1655 2954.2200842364464 
 590 1655 3039.2200842364464 590 1655 2954.2200842364464 
 607 1655 3039.2200842364464 607 1655 2954.2200842364464 
 625 1655 3039.2200842364464 625 1655 2954.2200842364464 
 650 1655 3039.2200842364464 650 1655 2954.2200842364464 
 700 1655 3039.2200842364464 700 1655 2954.2200842364464 
 750 1655 3039.2200842364464 750 1655 2954.2200842364464 
 800 1655 3039.2200842364464 800 1655 2954.2200842364464 
 900 1655 3039.2200842364464 900 1655 2954.2200842364464 
 1000 1655 3039.2200842364464 1000 1655 2954.2200842364464 
 1100 1655 3039.2200842364464 1100 1655 2954.2200842364464 
 0 1705 3034.8622970990637 0 1705 2949.8622970990637 
 100 1705 3034.8622970990637 100 1705 2949.8622970990637 
 200 1705 3034.8622970990637 200 1705 2949.8622970990637 
 300 1705 3034.8622970990637 300 1705 2949.8622970990637 
 350 1705 3034.8622970990637 350 1705 2949.8622970990637 
 400 1705 3034.8622970990637 400 1705 2949.8622970990637 
 450 1705 3034.8622970990637 450 1705 2949.8622970990637 
 475 1705 3034.8622970990637 475 1705 2949.8622970990637 
 493 1705 3034.8622970990637 493 1705 2949.8622970990637 
 510 1705 3034.8622970990637 510 1705 2949.8622970990637 
 526 1705 3034.8622970990637 526 1705 2949.8622970990637 
 542 1705 3034.8622970990637 542 1705 2949.8622970990637 
 558 1705 3034.8622970990637 558 1705 2949.8622970990637 
 574 1705 3034.8622970990637 574 1705 2949.8622970990637 
 590 1705 3034.8622970990637 590 1705 2949.8622970990637 
 607 1705 3034.8622970990637 607 1705 2949.8622970990637 
 625 1705 3034.8622970990637 625 1705 2949.8622970990637 
 650 1705 3034.8622970990637 650 1705 2949.8622970990637 
 700 1705 3034.8622970990637 700 1705 2949.8622970990637 
 750 1705 3034.8622970990637 750 1705 2949.8622970990637 
 800 1705 3034.8622970990637 800 1705 2949.8622970990637 
 900 1705 3034.8622970990637 900 1705 2949.8622970990637 
 1000 1705 3034.8622970990637 1000 1705 2949.8622970990637 
 1100 1705 3034.8622970990637 1100 1705 2949.8622970990637 
 0 1755 3030.5045099616805 0 1755 2945.5045099616805 
 100 1755 3030.5045099616805 100 1755 2945.5045099616805 
 200 1755 3030.5045099616805 200 1755 2945.5045099616805 
 300 1755 3030.5045099616805 300 1755 2945.5045099616805 
 350 1755 3030.5045099616805 350 1755 2945.5045099616805 
 400 1755 3030.5045099616805 400 1755 2945.5045099616805 
 450 1755 3030.5045099616805 450 1755 2945.5045099616805 
 475 1755 3030.5045099616805 475 1755 2945.5045099616805 
 493 1755 3030.5045099616805 493 1755 2945.5045099616805 
 510 1755 3030.5045099616805 510 1755 2945.5045099616805 
 526 1755 3030.5045099616805 526 1755 2945.5045099616805 
 542 1755 3030.5045099616805 542 1755 2945.5045099616805 
 558 1755 3030.5045099616805 558 1755 2945.5045099616805 
 574 1755 3030.5045099616805 574 1755 2945.5045099616805 
 590 1755 3030.5045099616805 590 1755 2945.5045099616805 
 607 1755 3030.5045099616805 607 1755 2945.5045099616805 
 625 1755 3030.5045099616805 625 1755 2945.5045099616805 
 650 1755 3030.5045099616805 650 1755 2945.5045099616805 
 700 1755 3030.5045099616805 700 1755 2945.5045099616805 
 750 1755 3030.5045099616805 750 1755 2945.5045099616805 