-- Tilted grid generated for pflotran runs 
SPECGRID 
 11 11 3 / 

COORD 
 0 0 3095.871317022424 0 0 3010.871317022424 
 100 0 3095.871317022424 100 0 3010.871317022424 
 200 0 3095.871317022424 200 0 3010.871317022424 
 300 0 3095.871317022424 300 0 3010.871317022424 
 400 0 3095.871317022424 400 0 3010.871317022424 
 500 0 3095.871317022424 500 0 3010.871317022424 
 600 0 3095.871317022424 600 0 3010.871317022424 
 700 0 3095.871317022424 700 0 3010.871317022424 
 800 0 3095.871317022424 800 0 3010.871317022424 
 900 0 3095.871317022424 900 0 3010.871317022424 
 1000 0 3095.871317022424 1000 0 3010.871317022424 
 1100 0 3095.871317022424 1100 0 3010.871317022424 
 0 100 3087.155742747658 0 100 3002.155742747658 
 100 100 3087.155742747658 100 100 3002.155742747658 
 200 100 3087.155742747658 200 100 3002.155742747658 
 300 100 3087.155742747658 300 100 3002.155742747658 
 400 100 3087.155742747658 400 100 3002.155742747658 
 500 100 3087.155742747658 500 100 3002.155742747658 
 600 100 3087.155742747658 600 100 3002.155742747658 
 700 100 3087.155742747658 700 100 3002.155742747658 
 800 100 3087.155742747658 800 100 3002.155742747658 
 900 100 3087.155742747658 900 100 3002.155742747658 
 1000 100 3087.155742747658 1000 100 3002.155742747658 
 1100 100 3087.155742747658 1100 100 3002.155742747658 
 0 200 3078.4401684728923 0 200 2993.4401684728923 
 100 200 3078.4401684728923 100 200 2993.4401684728923 
 200 200 3078.4401684728923 200 200 2993.4401684728923 
 300 200 3078.4401684728923 300 200 2993.4401684728923 
 400 200 3078.4401684728923 400 200 2993.4401684728923 
 500 200 3078.4401684728923 500 200 2993.4401684728923 
 600 200 3078.4401684728923 600 200 2993.4401684728923 
 700 200 3078.4401684728923 700 200 2993.4401684728923 
 800 200 3078.4401684728923 800 200 2993.4401684728923 
 900 200 3078.4401684728923 900 200 2993.4401684728923 
 1000 200 3078.4401684728923 1000 200 2993.4401684728923 
 1100 200 3078.4401684728923 1100 200 2993.4401684728923 
 0 300 3069.724594198127 0 300 2984.724594198127 
 100 300 3069.724594198127 100 300 2984.724594198127 
 200 300 3069.724594198127 200 300 2984.724594198127 
 300 300 3069.724594198127 300 300 2984.724594198127 
 400 300 3069.724594198127 400 300 2984.724594198127 
 500 300 3069.724594198127 500 300 2984.724594198127 
 600 300 3069.724594198127 600 300 2984.724594198127 
 700 300 3069.724594198127 700 300 2984.724594198127 
 800 300 3069.724594198127 800 300 2984.724594198127 
 900 300 3069.724594198127 900 300 2984.724594198127 
 1000 300 3069.724594198127 1000 300 2984.724594198127 
 1100 300 3069.724594198127 1100 300 2984.724594198127 
 0 400 3061.009019923361 0 400 2976.009019923361 
 100 400 3061.009019923361 100 400 2976.009019923361 
 200 400 3061.009019923361 200 400 2976.009019923361 
 300 400 3061.009019923361 300 400 2976.009019923361 
 400 400 3061.009019923361 400 400 2976.009019923361 
 500 400 3061.009019923361 500 400 2976.009019923361 
 600 400 3061.009019923361 600 400 2976.009019923361 
 700 400 3061.009019923361 700 400 2976.009019923361 
 800 400 3061.009019923361 800 400 2976.009019923361 
 900 400 3061.009019923361 900 400 2976.009019923361 
 1000 400 3061.009019923361 1000 400 2976.009019923361 
 1100 400 3061.009019923361 1100 400 2976.009019923361 
 0 500 3052.293445648595 0 500 2967.293445648595 
 100 500 3052.293445648595 100 500 2967.293445648595 
 200 500 3052.293445648595 200 500 2967.293445648595 
 300 500 3052.293445648595 300 500 2967.293445648595 
 400 500 3052.293445648595 400 500 2967.293445648595 
 500 500 3052.293445648595 500 500 2967.293445648595 
 600 500 3052.293445648595 600 500 2967.293445648595 
 700 500 3052.293445648595 700 500 2967.293445648595 
 800 500 3052.293445648595 800 500 2967.293445648595 
 900 500 3052.293445648595 900 500 2967.293445648595 
 1000 500 3052.293445648595 1000 500 2967.293445648595 
 1100 500 3052.293445648595 1100 500 2967.293445648595 
 0 600 3043.577871373829 0 600 2958.577871373829 
 100 600 3043.577871373829 100 600 2958.577871373829 
 200 600 3043.577871373829 200 600 2958.577871373829 
 300 600 3043.577871373829 300 600 2958.577871373829 
 400 600 3043.577871373829 400 600 2958.577871373829 
 500 600 3043.577871373829 500 600 2958.577871373829 
 600 600 3043.577871373829 600 600 2958.577871373829 
 700 600 3043.577871373829 700 600 2958.577871373829 
 800 600 3043.577871373829 800 600 2958.577871373829 
 900 600 3043.577871373829 900 600 2958.577871373829 
 1000 600 3043.577871373829 1000 600 2958.577871373829 
 1100 600 3043.577871373829 1100 600 2958.577871373829 
 0 700 3034.862297099063 0 700 2949.862297099063 
 100 700 3034.862297099063 100 700 2949.862297099063 
 200 700 3034.862297099063 200 700 2949.862297099063 
 300 700 3034.862297099063 300 700 2949.862297099063 
 400 700 3034.862297099063 400 700 2949.862297099063 
 500 700 3034.862297099063 500 700 2949.862297099063 
 600 700 3034.862297099063 600 700 2949.862297099063 
 700 700 3034.862297099063 700 700 2949.862297099063 
 800 700 3034.862297099063 800 700 2949.862297099063 
 900 700 3034.862297099063 900 700 2949.862297099063 
 1000 700 3034.862297099063 1000 700 2949.862297099063 
 1100 700 3034.862297099063 1100 700 2949.862297099063 
 0 800 3026.1467228242977 0 800 2941.1467228242977 
 100 800 3026.1467228242977 100 800 2941.1467228242977 
 200 800 3026.1467228242977 200 800 2941.1467228242977 
 300 800 3026.1467228242977 300 800 2941.1467228242977 
 400 800 3026.1467228242977 400 800 2941.1467228242977 
 500 800 3026.1467228242977 500 800 2941.1467228242977 
 600 800 3026.1467228242977 600 800 2941.1467228242977 
 700 800 3026.1467228242977 700 800 2941.1467228242977 
 800 800 3026.1467228242977 800 800 2941.1467228242977 
 900 800 3026.1467228242977 900 800 2941.1467228242977 
 1000 800 3026.1467228242977 1000 800 2941.1467228242977 
 1100 800 3026.1467228242977 1100 800 2941.1467228242977 
 0 900 3017.431148549532 0 900 2932.431148549532 
 100 900 3017.431148549532 100 900 2932.431148549532 
 200 900 3017.431148549532 200 900 2932.431148549532 
 300 900 3017.431148549532 300 900 2932.431148549532 
 400 900 3017.431148549532 400 900 2932.431148549532 
 500 900 3017.431148549532 500 900 2932.431148549532 
 600 900 3017.431148549532 600 900 2932.431148549532 
 700 900 3017.431148549532 700 900 2932.431148549532 
 800 900 3017.431148549532 800 900 2932.431148549532 
 900 900 3017.431148549532 900 900 2932.431148549532 
 1000 900 3017.431148549532 1000 900 2932.431148549532 
 1100 900 3017.431148549532 1100 900 2932.431148549532 
 0 1000 3008.715574274766 0 1000 2923.715574274766 
 100 1000 3008.715574274766 100 1000 2923.715574274766 
 200 1000 3008.715574274766 200 1000 2923.715574274766 
 300 1000 3008.715574274766 300 1000 2923.715574274766 
 400 1000 3008.715574274766 400 1000 2923.715574274766 
 500 1000 3008.715574274766 500 1000 2923.715574274766 
 600 1000 3008.715574274766 600 1000 2923.715574274766 
 700 1000 3008.715574274766 700 1000 2923.715574274766 
 800 1000 3008.715574274766 800 1000 2923.715574274766 
 900 1000 3008.715574274766 900 1000 2923.715574274766 
 1000 1000 3008.715574274766 1000 1000 2923.715574274766 
 1100 1000 3008.715574274766 1100 1000 2923.715574274766 
 0 1100 3000.0 0 1100 2915.0 
 100 1100 3000.0 100 1100 2915.0 
 200 1100 3000.0 200 1100 2915.0 
 300 1100 3000.0 300 1100 2915.0 
 400 1100 3000.0 400 1100 2915.0 
 500 1100 3000.0 500 1100 2915.0 
 600 1100 3000.0 600 1100 2915.0 
 700 1100 3000.0 700 1100 2915.0 
 800 1100 3000.0 800 1100 2915.0 
 900 1100 3000.0 900 1100 2915.0 
 1000 1100 3000.0 1000 1100 2915.0 
 1100 1100 3000.0 1100 1100 2915.0 
/ 

ZCORN 
-- Top of layer 1 
 3095.871317022424 3095.871317022424  3095.871317022424 3095.871317022424  3095.871317022424 3095.871317022424  3095.871317022424 3095.871317022424  3095.871317022424 3095.871317022424 
 3095.871317022424 3095.871317022424  3095.871317022424 3095.871317022424  3095.871317022424 3095.871317022424  3095.871317022424 3095.871317022424  3095.871317022424 3095.871317022424 
 3095.871317022424 3095.871317022424  3087.155742747658 3087.155742747658  3087.155742747658 3087.155742747658  3087.155742747658 3087.155742747658  3087.155742747658 3087.155742747658  3087.155742747658 3087.155742747658 
 3087.155742747658 3087.155742747658  3087.155742747658 3087.155742747658  3087.155742747658 3087.155742747658  3087.155742747658 3087.155742747658  3087.155742747658 3087.155742747658 
 3087.155742747658 3087.155742747658 
 3087.155742747658 3087.155742747658  3087.155742747658 3087.155742747658  3087.155742747658 3087.155742747658  3087.155742747658 3087.155742747658  3087.155742747658 3087.155742747658 
 3087.155742747658 3087.155742747658  3087.155742747658 3087.155742747658  3087.155742747658 3087.155742747658  3087.155742747658 3087.155742747658  3087.155742747658 3087.155742747658 
 3087.155742747658 3087.155742747658  3078.4401684728923 3078.4401684728923  3078.4401684728923 3078.4401684728923  3078.4401684728923 3078.4401684728923  3078.4401684728923 3078.4401684728923  3078.4401684728923 3078.4401684728923 
 3078.4401684728923 3078.4401684728923  3078.4401684728923 3078.4401684728923  3078.4401684728923 3078.4401684728923  3078.4401684728923 3078.4401684728923  3078.4401684728923 3078.4401684728923 
 3078.4401684728923 3078.4401684728923 
 3078.4401684728923 3078.4401684728923  3078.4401684728923 3078.4401684728923  3078.4401684728923 3078.4401684728923  3078.4401684728923 3078.4401684728923  3078.4401684728923 3078.4401684728923 
 3078.4401684728923 3078.4401684728923  3078.4401684728923 3078.4401684728923  3078.4401684728923 3078.4401684728923  3078.4401684728923 3078.4401684728923  3078.4401684728923 3078.4401684728923 
 3078.4401684728923 3078.4401684728923  3069.724594198127 3069.724594198127  3069.724594198127 3069.724594198127  3069.724594198127 3069.724594198127  3069.724594198127 3069.724594198127  3069.724594198127 3069.724594198127 
 3069.724594198127 3069.724594198127  3069.724594198127 3069.724594198127  3069.724594198127 3069.724594198127  3069.724594198127 3069.724594198127  3069.724594198127 3069.724594198127 
 3069.724594198127 3069.724594198127 
 3069.724594198127 3069.724594198127  3069.724594198127 3069.724594198127  3069.724594198127 3069.724594198127  3069.724594198127 3069.724594198127  3069.724594198127 3069.724594198127 
 3069.724594198127 3069.724594198127  3069.724594198127 3069.724594198127  3069.724594198127 3069.724594198127  3069.724594198127 3069.724594198127  3069.724594198127 3069.724594198127 
 3069.724594198127 3069.724594198127  3061.009019923361 3061.009019923361  3061.009019923361 3061.009019923361  3061.009019923361 3061.009019923361  3061.009019923361 3061.009019923361  3061.009019923361 3061.009019923361 
 3061.009019923361 3061.009019923361  3061.009019923361 3061.009019923361  3061.009019923361 3061.009019923361  3061.009019923361 3061.009019923361  3061.009019923361 3061.009019923361 
 3061.009019923361 3061.009019923361 
 3061.009019923361 3061.009019923361  3061.009019923361 3061.009019923361  3061.009019923361 3061.009019923361  3061.009019923361 3061.009019923361  3061.009019923361 3061.009019923361 
 3061.009019923361 3061.009019923361  3061.009019923361 3061.009019923361  3061.009019923361 3061.009019923361  3061.009019923361 3061.009019923361  3061.009019923361 3061.009019923361 
 3061.009019923361 3061.009019923361  3052.293445648595 3052.293445648595  3052.293445648595 3052.293445648595  3052.293445648595 3052.293445648595  3052.293445648595 3052.293445648595  3052.293445648595 3052.293445648595 
 3052.293445648595 3052.293445648595  3052.293445648595 3052.293445648595  3052.293445648595 3052.293445648595  3052.293445648595 3052.293445648595  3052.293445648595 3052.293445648595 
 3052.293445648595 3052.293445648595 
 3052.293445648595 3052.293445648595  3052.293445648595 3052.293445648595  3052.293445648595 3052.293445648595  3052.293445648595 3052.293445648595  3052.293445648595 3052.293445648595 
 3052.293445648595 3052.293445648595  3052.293445648595 3052.293445648595  3052.293445648595 3052.293445648595  3052.293445648595 3052.293445648595  3052.293445648595 3052.293445648595 
 3052.293445648595 3052.293445648595  3043.577871373829 3043.577871373829  3043.577871373829 3043.577871373829  3043.577871373829 3043.577871373829  3043.577871373829 3043.577871373829  3043.577871373829 3043.577871373829 
 3043.577871373829 3043.577871373829  3043.577871373829 3043.577871373829  3043.577871373829 3043.577871373829  3043.577871373829 3043.577871373829  3043.577871373829 3043.577871373829 
 3043.577871373829 3043.577871373829 
 3043.577871373829 3043.577871373829  3043.577871373829 3043.577871373829  3043.577871373829 3043.577871373829  3043.577871373829 3043.577871373829  3043.577871373829 3043.577871373829 
 3043.577871373829 3043.577871373829  3043.577871373829 3043.577871373829  3043.577871373829 3043.577871373829  3043.577871373829 3043.577871373829  3043.577871373829 3043.577871373829 
 3043.577871373829 3043.577871373829  3034.862297099063 3034.862297099063  3034.862297099063 3034.862297099063  3034.862297099063 3034.862297099063  3034.862297099063 3034.862297099063  3034.862297099063 3034.862297099063 
 3034.862297099063 3034.862297099063  3034.862297099063 3034.862297099063  3034.862297099063 3034.862297099063  3034.862297099063 3034.862297099063  3034.862297099063 3034.862297099063 
 3034.862297099063 3034.862297099063 
 3034.862297099063 3034.862297099063  3034.862297099063 3034.862297099063  3034.862297099063 3034.862297099063  3034.862297099063 3034.862297099063  3034.862297099063 3034.862297099063 
 3034.862297099063 3034.862297099063  3034.862297099063 3034.862297099063  3034.862297099063 3034.862297099063  3034.862297099063 3034.862297099063  3034.862297099063 3034.862297099063 
 3034.862297099063 3034.862297099063  3026.1467228242977 3026.1467228242977  3026.1467228242977 3026.1467228242977  3026.1467228242977 3026.1467228242977  3026.1467228242977 3026.1467228242977  3026.1467228242977 3026.1467228242977 
 3026.1467228242977 3026.1467228242977  3026.1467228242977 3026.1467228242977  3026.1467228242977 3026.1467228242977  3026.1467228242977 3026.1467228242977  3026.1467228242977 3026.1467228242977 
 3026.1467228242977 3026.1467228242977 
 3026.1467228242977 3026.1467228242977  3026.1467228242977 3026.1467228242977  3026.1467228242977 3026.1467228242977  3026.1467228242977 3026.1467228242977  3026.1467228242977 3026.1467228242977 
 3026.1467228242977 3026.1467228242977  3026.1467228242977 3026.1467228242977  3026.1467228242977 3026.1467228242977  3026.1467228242977 3026.1467228242977  3026.1467228242977 3026.1467228242977 
 3026.1467228242977 3026.1467228242977  3017.431148549532 3017.431148549532  3017.431148549532 3017.431148549532  3017.431148549532 3017.431148549532  3017.431148549532 3017.431148549532  3017.431148549532 3017.431148549532 
 3017.431148549532 3017.431148549532  3017.431148549532 3017.431148549532  3017.431148549532 3017.431148549532  3017.431148549532 3017.431148549532  3017.431148549532 3017.431148549532 
 3017.431148549532 3017.431148549532 
 3017.431148549532 3017.431148549532  3017.431148549532 3017.431148549532  3017.431148549532 3017.431148549532  3017.431148549532 3017.431148549532  3017.431148549532 3017.431148549532 
 3017.431148549532 3017.431148549532  3017.431148549532 3017.431148549532  3017.431148549532 3017.431148549532  3017.431148549532 3017.431148549532  3017.431148549532 3017.431148549532 
 3017.431148549532 3017.431148549532  3008.715574274766 3008.715574274766  3008.715574274766 3008.715574274766  3008.715574274766 3008.715574274766  3008.715574274766 3008.715574274766  3008.715574274766 3008.715574274766 
 3008.715574274766 3008.715574274766  3008.715574274766 3008.715574274766  3008.715574274766 3008.715574274766  3008.715574274766 3008.715574274766  3008.715574274766 3008.715574274766 
 3008.715574274766 3008.715574274766 
 3008.715574274766 3008.715574274766  3008.715574274766 3008.715574274766  3008.715574274766 3008.715574274766  3008.715574274766 3008.715574274766  3008.715574274766 3008.715574274766 
 3008.715574274766 3008.715574274766  3008.715574274766 3008.715574274766  3008.715574274766 3008.715574274766  3008.715574274766 3008.715574274766  3008.715574274766 3008.715574274766 
 3008.715574274766 3008.715574274766  3000.0 3000.0  3000.0 3000.0  3000.0 3000.0  3000.0 3000.0  3000.0 3000.0 
 3000.0 3000.0  3000.0 3000.0  3000.0 3000.0  3000.0 3000.0  3000.0 3000.0 
 3000.0 3000.0 

-- Bottom of layer 1 
 3135.871317022424 3135.871317022424  3135.871317022424 3135.871317022424  3135.871317022424 3135.871317022424  3135.871317022424 3135.871317022424  3135.871317022424 3135.871317022424 
 3135.871317022424 3135.871317022424  3135.871317022424 3135.871317022424  3135.871317022424 3135.871317022424  3135.871317022424 3135.871317022424  3135.871317022424 3135.871317022424 
 3135.871317022424 3135.871317022424  3127.155742747658 3127.155742747658  3127.155742747658 3127.155742747658  3127.155742747658 3127.155742747658  3127.155742747658 3127.155742747658  3127.155742747658 3127.155742747658 
 3127.155742747658 3127.155742747658  3127.155742747658 3127.155742747658  3127.155742747658 3127.155742747658  3127.155742747658 3127.155742747658  3127.155742747658 3127.155742747658 
 3127.155742747658 3127.155742747658 
 3127.155742747658 3127.155742747658  3127.155742747658 3127.155742747658  3127.155742747658 3127.155742747658  3127.155742747658 3127.155742747658  3127.155742747658 3127.155742747658 
 3127.155742747658 3127.155742747658  3127.155742747658 3127.155742747658  3127.155742747658 3127.155742747658  3127.155742747658 3127.155742747658  3127.155742747658 3127.155742747658 
 3127.155742747658 3127.155742747658  3118.4401684728923 3118.4401684728923  3118.4401684728923 3118.4401684728923  3118.4401684728923 3118.4401684728923  3118.4401684728923 3118.4401684728923  3118.4401684728923 3118.4401684728923 
 3118.4401684728923 3118.4401684728923  3118.4401684728923 3118.4401684728923  3118.4401684728923 3118.4401684728923  3118.4401684728923 3118.4401684728923  3118.4401684728923 3118.4401684728923 
 3118.4401684728923 3118.4401684728923 
 3118.4401684728923 3118.4401684728923  3118.4401684728923 3118.4401684728923  3118.4401684728923 3118.4401684728923  3118.4401684728923 3118.4401684728923  3118.4401684728923 3118.4401684728923 
 3118.4401684728923 3118.4401684728923  3118.4401684728923 3118.4401684728923  3118.4401684728923 3118.4401684728923  3118.4401684728923 3118.4401684728923  3118.4401684728923 3118.4401684728923 
 3118.4401684728923 3118.4401684728923  3109.724594198127 3109.724594198127  3109.724594198127 3109.724594198127  3109.724594198127 3109.724594198127  3109.724594198127 3109.724594198127  3109.724594198127 3109.724594198127 
 3109.724594198127 3109.724594198127  3109.724594198127 3109.724594198127  3109.724594198127 3109.724594198127  3109.724594198127 3109.724594198127  3109.724594198127 3109.724594198127 
 3109.724594198127 3109.724594198127 
 3109.724594198127 3109.724594198127  3109.724594198127 3109.724594198127  3109.724594198127 3109.724594198127  3109.724594198127 3109.724594198127  3109.724594198127 3109.724594198127 
 3109.724594198127 3109.724594198127  3109.724594198127 3109.724594198127  3109.724594198127 3109.724594198127  3109.724594198127 3109.724594198127  3109.724594198127 3109.724594198127 
 3109.724594198127 3109.724594198127  3101.009019923361 3101.009019923361  3101.009019923361 3101.009019923361  3101.009019923361 3101.009019923361  3101.009019923361 3101.009019923361  3101.009019923361 3101.009019923361 
 3101.009019923361 3101.009019923361  3101.009019923361 3101.009019923361  3101.009019923361 3101.009019923361  3101.009019923361 3101.009019923361  3101.009019923361 3101.009019923361 
 3101.009019923361 3101.009019923361 
 3101.009019923361 3101.009019923361  3101.009019923361 3101.009019923361  3101.009019923361 3101.009019923361  3101.009019923361 3101.009019923361  3101.009019923361 3101.009019923361 
 3101.009019923361 3101.009019923361  3101.009019923361 3101.009019923361  3101.009019923361 3101.009019923361  3101.009019923361 3101.009019923361  3101.009019923361 3101.009019923361 
 3101.009019923361 3101.009019923361  3092.293445648595 3092.293445648595  3092.293445648595 3092.293445648595  3092.293445648595 3092.293445648595  3092.293445648595 3092.293445648595  3092.293445648595 3092.293445648595 
 3092.293445648595 3092.293445648595  3092.293445648595 3092.293445648595  3092.293445648595 3092.293445648595  3092.293445648595 3092.293445648595  3092.293445648595 3092.293445648595 
 3092.293445648595 3092.293445648595 
 3092.293445648595 3092.293445648595  3092.293445648595 3092.293445648595  3092.293445648595 3092.293445648595  3092.293445648595 3092.293445648595  3092.293445648595 3092.293445648595 
 3092.293445648595 3092.293445648595  3092.293445648595 3092.293445648595  3092.293445648595 3092.293445648595  3092.293445648595 3092.293445648595  3092.293445648595 3092.293445648595 
 3092.293445648595 3092.293445648595  3083.577871373829 3083.577871373829  3083.577871373829 3083.577871373829  3083.577871373829 3083.577871373829  3083.577871373829 3083.577871373829  3083.577871373829 3083.577871373829 
 3083.577871373829 3083.577871373829  3083.577871373829 3083.577871373829  3083.577871373829 3083.577871373829  3083.577871373829 3083.577871373829  3083.577871373829 3083.577871373829 
 3083.577871373829 3083.577871373829 
 3083.577871373829 3083.577871373829  3083.577871373829 3083.577871373829  3083.577871373829 3083.577871373829  3083.577871373829 3083.577871373829  3083.577871373829 3083.577871373829 
 3083.577871373829 3083.577871373829  3083.577871373829 3083.577871373829  3083.577871373829 3083.577871373829  3083.577871373829 3083.577871373829  3083.577871373829 3083.577871373829 
 3083.577871373829 3083.577871373829  3074.862297099063 3074.862297099063  3074.862297099063 3074.862297099063  3074.862297099063 3074.862297099063  3074.862297099063 3074.862297099063  3074.862297099063 3074.862297099063 
 3074.862297099063 3074.862297099063  3074.862297099063 3074.862297099063  3074.862297099063 3074.862297099063  3074.862297099063 3074.862297099063  3074.862297099063 3074.862297099063 
 3074.862297099063 3074.862297099063 
 3074.862297099063 3074.862297099063  3074.862297099063 3074.862297099063  3074.862297099063 3074.862297099063  3074.862297099063 3074.862297099063  3074.862297099063 3074.862297099063 
 3074.862297099063 3074.862297099063  3074.862297099063 3074.862297099063  3074.862297099063 3074.862297099063  3074.862297099063 3074.862297099063  3074.862297099063 3074.862297099063 
 3074.862297099063 3074.862297099063  3066.1467228242977 3066.1467228242977  3066.1467228242977 3066.1467228242977  3066.1467228242977 3066.1467228242977  3066.1467228242977 3066.1467228242977  3066.1467228242977 3066.1467228242977 
 3066.1467228242977 3066.1467228242977  3066.1467228242977 3066.1467228242977  3066.1467228242977 3066.1467228242977  3066.1467228242977 3066.1467228242977  3066.1467228242977 3066.1467228242977 
 3066.1467228242977 3066.1467228242977 
 3066.1467228242977 3066.1467228242977  3066.1467228242977 3066.1467228242977  3066.1467228242977 3066.1467228242977  3066.1467228242977 3066.1467228242977  3066.1467228242977 3066.1467228242977 
 3066.1467228242977 3066.1467228242977  3066.1467228242977 3066.1467228242977  3066.1467228242977 3066.1467228242977  3066.1467228242977 3066.1467228242977  3066.1467228242977 3066.1467228242977 
 3066.1467228242977 3066.1467228242977  3057.431148549532 3057.431148549532  3057.431148549532 3057.431148549532  3057.431148549532 3057.431148549532  3057.431148549532 3057.431148549532  3057.431148549532 3057.431148549532 
 3057.431148549532 3057.431148549532  3057.431148549532 3057.431148549532  3057.431148549532 3057.431148549532  3057.431148549532 3057.431148549532  3057.431148549532 3057.431148549532 
 3057.431148549532 3057.431148549532 
 3057.431148549532 3057.431148549532  3057.431148549532 3057.431148549532  3057.431148549532 3057.431148549532  3057.431148549532 3057.431148549532  3057.431148549532 3057.431148549532 
 3057.431148549532 3057.431148549532  3057.431148549532 3057.431148549532  3057.431148549532 3057.431148549532  3057.431148549532 3057.431148549532  3057.431148549532 3057.431148549532 
 3057.431148549532 3057.431148549532  3048.715574274766 3048.715574274766  3048.715574274766 3048.715574274766  3048.715574274766 3048.715574274766  3048.715574274766 3048.715574274766  3048.715574274766 3048.715574274766 
 3048.715574274766 3048.715574274766  3048.715574274766 3048.715574274766  3048.715574274766 3048.715574274766  3048.715574274766 3048.715574274766  3048.715574274766 3048.715574274766 
 3048.715574274766 3048.715574274766 
 3048.715574274766 3048.715574274766  3048.715574274766 3048.715574274766  3048.715574274766 3048.715574274766  3048.715574274766 3048.715574274766  3048.715574274766 3048.715574274766 
 3048.715574274766 3048.715574274766  3048.715574274766 3048.715574274766  3048.715574274766 3048.715574274766  3048.715574274766 3048.715574274766  3048.715574274766 3048.715574274766 
 3048.715574274766 3048.715574274766  3040.0 3040.0  3040.0 3040.0  3040.0 3040.0  3040.0 3040.0  3040.0 3040.0 
 3040.0 3040.0  3040.0 3040.0  3040.0 3040.0  3040.0 3040.0  3040.0 3040.0 
 3040.0 3040.0 

-- Top of layer 2 
 3135.871317022424 3135.871317022424  3135.871317022424 3135.871317022424  3135.871317022424 3135.871317022424  3135.871317022424 3135.871317022424  3135.871317022424 3135.871317022424 
 3135.871317022424 3135.871317022424  3135.871317022424 3135.871317022424  3135.871317022424 3135.871317022424  3135.871317022424 3135.871317022424  3135.871317022424 3135.871317022424 
 3135.871317022424 3135.871317022424  3127.155742747658 3127.155742747658  3127.155742747658 3127.155742747658  3127.155742747658 3127.155742747658  3127.155742747658 3127.155742747658  3127.155742747658 3127.155742747658 
 3127.155742747658 3127.155742747658  3127.155742747658 3127.155742747658  3127.155742747658 3127.155742747658  3127.155742747658 3127.155742747658  3127.155742747658 3127.155742747658 
 3127.155742747658 3127.155742747658 
 3127.155742747658 3127.155742747658  3127.155742747658 3127.155742747658  3127.155742747658 3127.155742747658  3127.155742747658 3127.155742747658  3127.155742747658 3127.155742747658 
 3127.155742747658 3127.155742747658  3127.155742747658 3127.155742747658  3127.155742747658 3127.155742747658  3127.155742747658 3127.155742747658  3127.155742747658 3127.155742747658 
 3127.155742747658 3127.155742747658  3118.4401684728923 3118.4401684728923  3118.4401684728923 3118.4401684728923  3118.4401684728923 3118.4401684728923  3118.4401684728923 3118.4401684728923  3118.4401684728923 3118.4401684728923 
 3118.4401684728923 3118.4401684728923  3118.4401684728923 3118.4401684728923  3118.4401684728923 3118.4401684728923  3118.4401684728923 3118.4401684728923  3118.4401684728923 3118.4401684728923 
 3118.4401684728923 3118.4401684728923 
 3118.4401684728923 3118.4401684728923  3118.4401684728923 3118.4401684728923  3118.4401684728923 3118.4401684728923  3118.4401684728923 3118.4401684728923  3118.4401684728923 3118.4401684728923 
 3118.4401684728923 3118.4401684728923  3118.4401684728923 3118.4401684728923  3118.4401684728923 3118.4401684728923  3118.4401684728923 3118.4401684728923  3118.4401684728923 3118.4401684728923 
 3118.4401684728923 3118.4401684728923  3109.724594198127 3109.724594198127  3109.724594198127 3109.724594198127  3109.724594198127 3109.724594198127  3109.724594198127 3109.724594198127  3109.724594198127 3109.724594198127 
 3109.724594198127 3109.724594198127  3109.724594198127 3109.724594198127  3109.724594198127 3109.724594198127  3109.724594198127 3109.724594198127  3109.724594198127 3109.724594198127 
 3109.724594198127 3109.724594198127 
 3109.724594198127 3109.724594198127  3109.724594198127 3109.724594198127  3109.724594198127 3109.724594198127  3109.724594198127 3109.724594198127  3109.724594198127 3109.724594198127 
 3109.724594198127 3109.724594198127  3109.724594198127 3109.724594198127  3109.724594198127 3109.724594198127  3109.724594198127 3109.724594198127  3109.724594198127 3109.724594198127 
 3109.724594198127 3109.724594198127  3101.009019923361 3101.009019923361  3101.009019923361 3101.009019923361  3101.009019923361 3101.009019923361  3101.009019923361 3101.009019923361  3101.009019923361 3101.009019923361 
 3101.009019923361 3101.009019923361  3101.009019923361 3101.009019923361  3101.009019923361 3101.009019923361  3101.009019923361 3101.009019923361  3101.009019923361 3101.009019923361 
 3101.009019923361 3101.009019923361 
 3101.009019923361 3101.009019923361  3101.009019923361 3101.009019923361  3101.009019923361 3101.009019923361  3101.009019923361 3101.009019923361  3101.009019923361 3101.009019923361 
 3101.009019923361 3101.009019923361  3101.009019923361 3101.009019923361  3101.009019923361 3101.009019923361  3101.009019923361 3101.009019923361  3101.009019923361 3101.009019923361 
 3101.009019923361 3101.009019923361  3092.293445648595 3092.293445648595  3092.293445648595 3092.293445648595  3092.293445648595 3092.293445648595  3092.293445648595 3092.293445648595  3092.293445648595 3092.293445648595 
 3092.293445648595 3092.293445648595  3092.293445648595 3092.293445648595  3092.293445648595 3092.293445648595  3092.293445648595 3092.293445648595  3092.293445648595 3092.293445648595 
 3092.293445648595 3092.293445648595 
 3092.293445648595 3092.293445648595  3092.293445648595 3092.293445648595  3092.293445648595 3092.293445648595  3092.293445648595 3092.293445648595  3092.293445648595 3092.293445648595 
 3092.293445648595 3092.293445648595  3092.293445648595 3092.293445648595  3092.293445648595 3092.293445648595  3092.293445648595 3092.293445648595  3092.293445648595 3092.293445648595 