-- Tilted grid generated for pflotran runs 
SPECGRID 
 10 10 3 / 

COORD 
 0.000000 0.000000 3087.155743 0.000000 7.408238 3171.832292 
 100.000000 0.000000 3087.155743 100.000000 7.408238 3171.832292 
 200.000000 0.000000 3087.155743 200.000000 7.408238 3171.832292 
 300.000000 0.000000 3087.155743 300.000000 7.408238 3171.832292 
 400.000000 0.000000 3087.155743 400.000000 7.408238 3171.832292 
 500.000000 0.000000 3087.155743 500.000000 7.408238 3171.832292 
 600.000000 0.000000 3087.155743 600.000000 7.408238 3171.832292 
 700.000000 0.000000 3087.155743 700.000000 7.408238 3171.832292 
 800.000000 0.000000 3087.155743 800.000000 7.408238 3171.832292 
 900.000000 0.000000 3087.155743 900.000000 7.408238 3171.832292 
 1000.000000 0.000000 3087.155743 1000.000000 7.408238 3171.832292 
 0.000000 100.000000 3078.440168 0.000000 107.408238 3163.116718 
 100.000000 100.000000 3078.440168 100.000000 107.408238 3163.116718 
 200.000000 100.000000 3078.440168 200.000000 107.408238 3163.116718 
 300.000000 100.000000 3078.440168 300.000000 107.408238 3163.116718 
 400.000000 100.000000 3078.440168 400.000000 107.408238 3163.116718 
 500.000000 100.000000 3078.440168 500.000000 107.408238 3163.116718 
 600.000000 100.000000 3078.440168 600.000000 107.408238 3163.116718 
 700.000000 100.000000 3078.440168 700.000000 107.408238 3163.116718 
 800.000000 100.000000 3078.440168 800.000000 107.408238 3163.116718 
 900.000000 100.000000 3078.440168 900.000000 107.408238 3163.116718 
 1000.000000 100.000000 3078.440168 1000.000000 107.408238 3163.116718 
 0.000000 200.000000 3069.724594 0.000000 207.408238 3154.401144 
 100.000000 200.000000 3069.724594 100.000000 207.408238 3154.401144 
 200.000000 200.000000 3069.724594 200.000000 207.408238 3154.401144 
 300.000000 200.000000 3069.724594 300.000000 207.408238 3154.401144 
 400.000000 200.000000 3069.724594 400.000000 207.408238 3154.401144 
 500.000000 200.000000 3069.724594 500.000000 207.408238 3154.401144 
 600.000000 200.000000 3069.724594 600.000000 207.408238 3154.401144 
 700.000000 200.000000 3069.724594 700.000000 207.408238 3154.401144 
 800.000000 200.000000 3069.724594 800.000000 207.408238 3154.401144 
 900.000000 200.000000 3069.724594 900.000000 207.408238 3154.401144 
 1000.000000 200.000000 3069.724594 1000.000000 207.408238 3154.401144 
 0.000000 300.000000 3061.009020 0.000000 307.408238 3145.685569 
 100.000000 300.000000 3061.009020 100.000000 307.408238 3145.685569 
 200.000000 300.000000 3061.009020 200.000000 307.408238 3145.685569 
 300.000000 300.000000 3061.009020 300.000000 307.408238 3145.685569 
 400.000000 300.000000 3061.009020 400.000000 307.408238 3145.685569 
 500.000000 300.000000 3061.009020 500.000000 307.408238 3145.685569 
 600.000000 300.000000 3061.009020 600.000000 307.408238 3145.685569 
 700.000000 300.000000 3061.009020 700.000000 307.408238 3145.685569 
 800.000000 300.000000 3061.009020 800.000000 307.408238 3145.685569 
 900.000000 300.000000 3061.009020 900.000000 307.408238 3145.685569 
 1000.000000 300.000000 3061.009020 1000.000000 307.408238 3145.685569 
 0.000000 400.000000 3052.293446 0.000000 407.408238 3136.969995 
 100.000000 400.000000 3052.293446 100.000000 407.408238 3136.969995 
 200.000000 400.000000 3052.293446 200.000000 407.408238 3136.969995 
 300.000000 400.000000 3052.293446 300.000000 407.408238 3136.969995 
 400.000000 400.000000 3052.293446 400.000000 407.408238 3136.969995 
 500.000000 400.000000 3052.293446 500.000000 407.408238 3136.969995 
 600.000000 400.000000 3052.293446 600.000000 407.408238 3136.969995 
 700.000000 400.000000 3052.293446 700.000000 407.408238 3136.969995 
 800.000000 400.000000 3052.293446 800.000000 407.408238 3136.969995 
 900.000000 400.000000 3052.293446 900.000000 407.408238 3136.969995 
 1000.000000 400.000000 3052.293446 1000.000000 407.408238 3136.969995 
 0.000000 500.000000 3043.577871 0.000000 507.408238 3128.254421 
 100.000000 500.000000 3043.577871 100.000000 507.408238 3128.254421 
 200.000000 500.000000 3043.577871 200.000000 507.408238 3128.254421 
 300.000000 500.000000 3043.577871 300.000000 507.408238 3128.254421 
 400.000000 500.000000 3043.577871 400.000000 507.408238 3128.254421 
 500.000000 500.000000 3043.577871 500.000000 507.408238 3128.254421 
 600.000000 500.000000 3043.577871 600.000000 507.408238 3128.254421 
 700.000000 500.000000 3043.577871 700.000000 507.408238 3128.254421 
 800.000000 500.000000 3043.577871 800.000000 507.408238 3128.254421 
 900.000000 500.000000 3043.577871 900.000000 507.408238 3128.254421 
 1000.000000 500.000000 3043.577871 1000.000000 507.408238 3128.254421 
 0.000000 600.000000 3034.862297 0.000000 607.408238 3119.538846 
 100.000000 600.000000 3034.862297 100.000000 607.408238 3119.538846 
 200.000000 600.000000 3034.862297 200.000000 607.408238 3119.538846 
 300.000000 600.000000 3034.862297 300.000000 607.408238 3119.538846 
 400.000000 600.000000 3034.862297 400.000000 607.408238 3119.538846 
 500.000000 600.000000 3034.862297 500.000000 607.408238 3119.538846 
 600.000000 600.000000 3034.862297 600.000000 607.408238 3119.538846 
 700.000000 600.000000 3034.862297 700.000000 607.408238 3119.538846 
 800.000000 600.000000 3034.862297 800.000000 607.408238 3119.538846 
 900.000000 600.000000 3034.862297 900.000000 607.408238 3119.538846 
 1000.000000 600.000000 3034.862297 1000.000000 607.408238 3119.538846 
 0.000000 700.000000 3026.146723 0.000000 707.408238 3110.823272 
 100.000000 700.000000 3026.146723 100.000000 707.408238 3110.823272 
 200.000000 700.000000 3026.146723 200.000000 707.408238 3110.823272 
 300.000000 700.000000 3026.146723 300.000000 707.408238 3110.823272 
 400.000000 700.000000 3026.146723 400.000000 707.408238 3110.823272 
 500.000000 700.000000 3026.146723 500.000000 707.408238 3110.823272 
 600.000000 700.000000 3026.146723 600.000000 707.408238 3110.823272 
 700.000000 700.000000 3026.146723 700.000000 707.408238 3110.823272 
 800.000000 700.000000 3026.146723 800.000000 707.408238 3110.823272 
 900.000000 700.000000 3026.146723 900.000000 707.408238 3110.823272 
 1000.000000 700.000000 3026.146723 1000.000000 707.408238 3110.823272 
 0.000000 800.000000 3017.431149 0.000000 807.408238 3102.107698 
 100.000000 800.000000 3017.431149 100.000000 807.408238 3102.107698 
 200.000000 800.000000 3017.431149 200.000000 807.408238 3102.107698 
 300.000000 800.000000 3017.431149 300.000000 807.408238 3102.107698 
 400.000000 800.000000 3017.431149 400.000000 807.408238 3102.107698 
 500.000000 800.000000 3017.431149 500.000000 807.408238 3102.107698 
 600.000000 800.000000 3017.431149 600.000000 807.408238 3102.107698 
 700.000000 800.000000 3017.431149 700.000000 807.408238 3102.107698 
 800.000000 800.000000 3017.431149 800.000000 807.408238 3102.107698 
 900.000000 800.000000 3017.431149 900.000000 807.408238 3102.107698 
 1000.000000 800.000000 3017.431149 1000.000000 807.408238 3102.107698 
 0.000000 900.000000 3008.715574 0.000000 907.408238 3093.392124 
 100.000000 900.000000 3008.715574 100.000000 907.408238 3093.392124 
 200.000000 900.000000 3008.715574 200.000000 907.408238 3093.392124 
 300.000000 900.000000 3008.715574 300.000000 907.408238 3093.392124 
 400.000000 900.000000 3008.715574 400.000000 907.408238 3093.392124 
 500.000000 900.000000 3008.715574 500.000000 907.408238 3093.392124 
 600.000000 900.000000 3008.715574 600.000000 907.408238 3093.392124 
 700.000000 900.000000 3008.715574 700.000000 907.408238 3093.392124 
 800.000000 900.000000 3008.715574 800.000000 907.408238 3093.392124 
 900.000000 900.000000 3008.715574 900.000000 907.408238 3093.392124 
 1000.000000 900.000000 3008.715574 1000.000000 907.408238 3093.392124 
 0.000000 1000.000000 3000.000000 0.000000 1007.408238 3084.676549 
 100.000000 1000.000000 3000.000000 100.000000 1007.408238 3084.676549 
 200.000000 1000.000000 3000.000000 200.000000 1007.408238 3084.676549 
 300.000000 1000.000000 3000.000000 300.000000 1007.408238 3084.676549 
 400.000000 1000.000000 3000.000000 400.000000 1007.408238 3084.676549 
 500.000000 1000.000000 3000.000000 500.000000 1007.408238 3084.676549 
 600.000000 1000.000000 3000.000000 600.000000 1007.408238 3084.676549 
 700.000000 1000.000000 3000.000000 700.000000 1007.408238 3084.676549 
 800.000000 1000.000000 3000.000000 800.000000 1007.408238 3084.676549 
 900.000000 1000.000000 3000.000000 900.000000 1007.408238 3084.676549 
 1000.000000 1000.000000 3000.000000 1000.000000 1007.408238 3084.676549 
/ 
  
ZCORN 
-- TOP of layer 1
 3087.155743 3087.155743  3087.155743 3087.155743  3087.155743 3087.155743  3087.155743 3087.155743  3087.155743 3087.155743 
 3087.155743 3087.155743  3087.155743 3087.155743  3087.155743 3087.155743  3087.155743 3087.155743  3087.155743 3087.155743 
 3078.440168 3078.440168  3078.440168 3078.440168  3078.440168 3078.440168  3078.440168 3078.440168  3078.440168 3078.440168 
 3078.440168 3078.440168  3078.440168 3078.440168  3078.440168 3078.440168  3078.440168 3078.440168  3078.440168 3078.440168 
 3078.440168 3078.440168  3078.440168 3078.440168  3078.440168 3078.440168  3078.440168 3078.440168  3078.440168 3078.440168 
 3078.440168 3078.440168  3078.440168 3078.440168  3078.440168 3078.440168  3078.440168 3078.440168  3078.440168 3078.440168 
 3069.724594 3069.724594  3069.724594 3069.724594  3069.724594 3069.724594  3069.724594 3069.724594  3069.724594 3069.724594 
 3069.724594 3069.724594  3069.724594 3069.724594  3069.724594 3069.724594  3069.724594 3069.724594  3069.724594 3069.724594 
 3069.724594 3069.724594  3069.724594 3069.724594  3069.724594 3069.724594  3069.724594 3069.724594  3069.724594 3069.724594 
 3069.724594 3069.724594  3069.724594 3069.724594  3069.724594 3069.724594  3069.724594 3069.724594  3069.724594 3069.724594 
 3061.009020 3061.009020  3061.009020 3061.009020  3061.009020 3061.009020  3061.009020 3061.009020  3061.009020 3061.009020 
 3061.009020 3061.009020  3061.009020 3061.009020  3061.009020 3061.009020  3061.009020 3061.009020  3061.009020 3061.009020 
 3061.009020 3061.009020  3061.009020 3061.009020  3061.009020 3061.009020  3061.009020 3061.009020  3061.009020 3061.009020 
 3061.009020 3061.009020  3061.009020 3061.009020  3061.009020 3061.009020  3061.009020 3061.009020  3061.009020 3061.009020 
 3052.293446 3052.293446  3052.293446 3052.293446  3052.293446 3052.293446  3052.293446 3052.293446  3052.293446 3052.293446 
 3052.293446 3052.293446  3052.293446 3052.293446  3052.293446 3052.293446  3052.293446 3052.293446  3052.293446 3052.293446 
 3052.293446 3052.293446  3052.293446 3052.293446  3052.293446 3052.293446  3052.293446 3052.293446  3052.293446 3052.293446 
 3052.293446 3052.293446  3052.293446 3052.293446  3052.293446 3052.293446  3052.293446 3052.293446  3052.293446 3052.293446 
 3043.577871 3043.577871  3043.577871 3043.577871  3043.577871 3043.577871  3043.577871 3043.577871  3043.577871 3043.577871 
 3043.577871 3043.577871  3043.577871 3043.577871  3043.577871 3043.577871  3043.577871 3043.577871  3043.577871 3043.577871 
 3043.577871 3043.577871  3043.577871 3043.577871  3043.577871 3043.577871  3043.577871 3043.577871  3043.577871 3043.577871 
 3043.577871 3043.577871  3043.577871 3043.577871  3043.577871 3043.577871  3043.577871 3043.577871  3043.577871 3043.577871 
 3034.862297 3034.862297  3034.862297 3034.862297  3034.862297 3034.862297  3034.862297 3034.862297  3034.862297 3034.862297 
 3034.862297 3034.862297  3034.862297 3034.862297  3034.862297 3034.862297  3034.862297 3034.862297  3034.862297 3034.862297 
 3034.862297 3034.862297  3034.862297 3034.862297  3034.862297 3034.862297  3034.862297 3034.862297  3034.862297 3034.862297 
 3034.862297 3034.862297  3034.862297 3034.862297  3034.862297 3034.862297  3034.862297 3034.862297  3034.862297 3034.862297 
 3026.146723 3026.146723  3026.146723 3026.146723  3026.146723 3026.146723  3026.146723 3026.146723  3026.146723 3026.146723 
 3026.146723 3026.146723  3026.146723 3026.146723  3026.146723 3026.146723  3026.146723 3026.146723  3026.146723 3026.146723 
 3026.146723 3026.146723  3026.146723 3026.146723  3026.146723 3026.146723  3026.146723 3026.146723  3026.146723 3026.146723 
 3026.146723 3026.146723  3026.146723 3026.146723  3026.146723 3026.146723  3026.146723 3026.146723  3026.146723 3026.146723 
 3017.431149 3017.431149  3017.431149 3017.431149  3017.431149 3017.431149  3017.431149 3017.431149  3017.431149 3017.431149 
 3017.431149 3017.431149  3017.431149 3017.431149  3017.431149 3017.431149  3017.431149 3017.431149  3017.431149 3017.431149 
 3017.431149 3017.431149  3017.431149 3017.431149  3017.431149 3017.431149  3017.431149 3017.431149  3017.431149 3017.431149 
 3017.431149 3017.431149  3017.431149 3017.431149  3017.431149 3017.431149  3017.431149 3017.431149  3017.431149 3017.431149 
 3008.715574 3008.715574  3008.715574 3008.715574  3008.715574 3008.715574  3008.715574 3008.715574  3008.715574 3008.715574 
 3008.715574 3008.715574  3008.715574 3008.715574  3008.715574 3008.715574  3008.715574 3008.715574  3008.715574 3008.715574 
 3008.715574 3008.715574  3008.715574 3008.715574  3008.715574 3008.715574  3008.715574 3008.715574  3008.715574 3008.715574 
 3008.715574 3008.715574  3008.715574 3008.715574  3008.715574 3008.715574  3008.715574 3008.715574  3008.715574 3008.715574 
 3000.000000 3000.000000  3000.000000 3000.000000  3000.000000 3000.000000  3000.000000 3000.000000  3000.000000 3000.000000 
 3000.000000 3000.000000  3000.000000 3000.000000  3000.000000 3000.000000  3000.000000 3000.000000  3000.000000 3000.000000 

-- Bottom of layer 1
 3127.155743 3127.155743  3127.155743 3127.155743  3127.155743 3127.155743  3127.155743 3127.155743  3127.155743 3127.155743 
 3127.155743 3127.155743  3127.155743 3127.155743  3127.155743 3127.155743  3127.155743 3127.155743  3127.155743 3127.155743 
 3118.440168 3118.440168  3118.440168 3118.440168  3118.440168 3118.440168  3118.440168 3118.440168  3118.440168 3118.440168 
 3118.440168 3118.440168  3118.440168 3118.440168  3118.440168 3118.440168  3118.440168 3118.440168  3118.440168 3118.440168 
 3118.440168 3118.440168  3118.440168 3118.440168  3118.440168 3118.440168  3118.440168 3118.440168  3118.440168 3118.440168 
 3118.440168 3118.440168  3118.440168 3118.440168  3118.440168 3118.440168  3118.440168 3118.440168  3118.440168 3118.440168 
 3109.724594 3109.724594  3109.724594 3109.724594  3109.724594 3109.724594  3109.724594 3109.724594  3109.724594 3109.724594 
 3109.724594 3109.724594  3109.724594 3109.724594  3109.724594 3109.724594  3109.724594 3109.724594  3109.724594 3109.724594 
 3109.724594 3109.724594  3109.724594 3109.724594  3109.724594 3109.724594  3109.724594 3109.724594  3109.724594 3109.724594 
 3109.724594 3109.724594  3109.724594 3109.724594  3109.724594 3109.724594  3109.724594 3109.724594  3109.724594 3109.724594 
 3101.009020 3101.009020  3101.009020 3101.009020  3101.009020 3101.009020  3101.009020 3101.009020  3101.009020 3101.009020 
 3101.009020 3101.009020  3101.009020 3101.009020  3101.009020 3101.009020  3101.009020 3101.009020  3101.009020 3101.009020 
 3101.009020 3101.009020  3101.009020 3101.009020  3101.009020 3101.009020  3101.009020 3101.009020  3101.009020 3101.009020 
 3101.009020 3101.009020  3101.009020 3101.009020  3101.009020 3101.009020  3101.009020 3101.009020  3101.009020 3101.009020 
 3092.293446 3092.293446  3092.293446 3092.293446  3092.293446 3092.293446  3092.293446 3092.293446  3092.293446 3092.293446 
 3092.293446 3092.293446  3092.293446 3092.293446  3092.293446 3092.293446  3092.293446 3092.293446  3092.293446 3092.293446 
 3092.293446 3092.293446  3092.293446 3092.293446  3092.293446 3092.293446  3092.293446 3092.293446  3092.293446 3092.293446 
 3092.293446 3092.293446  3092.293446 3092.293446  3092.293446 3092.293446  3092.293446 3092.293446  3092.293446 3092.293446 
 3083.577871 3083.577871  3083.577871 3083.577871  3083.577871 3083.577871  3083.577871 3083.577871  3083.577871 3083.577871 
 3083.577871 3083.577871  3083.577871 3083.577871  3083.577871 3083.577871  3083.577871 3083.577871  3083.577871 3083.577871 
 3083.577871 3083.577871  3083.577871 3083.577871  3083.577871 3083.577871  3083.577871 3083.577871  3083.577871 3083.577871 
 3083.577871 3083.577871  3083.577871 3083.577871  3083.577871 3083.577871  3083.577871 3083.577871  3083.577871 3083.577871 
 3074.862297 3074.862297  3074.862297 3074.862297  3074.862297 3074.862297  3074.862297 3074.862297  3074.862297 3074.862297 
 3074.862297 3074.862297  3074.862297 3074.862297  3074.862297 3074.862297  3074.862297 3074.862297  3074.862297 3074.862297 
 3074.862297 3074.862297  3074.862297 3074.862297  3074.862297 3074.862297  3074.862297 3074.862297  3074.862297 3074.862297 
 3074.862297 3074.862297  3074.862297 3074.862297  3074.862297 3074.862297  3074.862297 3074.862297  3074.862297 3074.862297 
 3066.146723 3066.146723  3066.146723 3066.146723  3066.146723 3066.146723  3066.146723 3066.146723  3066.146723 3066.146723 
 3066.146723 3066.146723  3066.146723 3066.146723  3066.146723 3066.146723  3066.146723 3066.146723  3066.146723 3066.146723 
 3066.146723 3066.146723  3066.146723 3066.146723  3066.146723 3066.146723  3066.146723 3066.146723  3066.146723 3066.146723 
 3066.146723 3066.146723  3066.146723 3066.146723  3066.146723 3066.146723  3066.146723 3066.146723  3066.146723 3066.146723 
 3057.431149 3057.431149  3057.431149 3057.431149  3057.431149 3057.431149  3057.431149 3057.431149  3057.431149 3057.431149 
 3057.431149 3057.431149  3057.431149 3057.431149  3057.431149 3057.431149  3057.431149 3057.431149  3057.431149 3057.431149 
 3057.431149 3057.431149  3057.431149 3057.431149  3057.431149 3057.431149  3057.431149 3057.431149  3057.431149 3057.431149 
 3057.431149 3057.431149  3057.431149 3057.431149  3057.431149 3057.431149  3057.431149 3057.431149  3057.431149 3057.431149 
 3048.715574 3048.715574  3048.715574 3048.715574  3048.715574 3048.715574  3048.715574 3048.715574  3048.715574 3048.715574 
 3048.715574 3048.715574  3048.715574 3048.715574  3048.715574 3048.715574  3048.715574 3048.715574  3048.715574 3048.715574 
 3048.715574 3048.715574  3048.715574 3048.715574  3048.715574 3048.715574  3048.715574 3048.715574  3048.715574 3048.715574 
 3048.715574 3048.715574  3048.715574 3048.715574  3048.715574 3048.715574  3048.715574 3048.715574  3048.715574 3048.715574 
 3040.000000 3040.000000  3040.000000 3040.000000  3040.000000 3040.000000  3040.000000 3040.000000  3040.000000 3040.000000 
 3040.000000 3040.000000  3040.000000 3040.000000  3040.000000 3040.000000  3040.000000 3040.000000  3040.000000 3040.000000 

-- Top of layer 2
 3127.155743 3127.155743  3127.155743 3127.155743  3127.155743 3127.155743  3127.155743 3127.155743  3127.155743 3127.155743 
 3127.155743 3127.155743  3127.155743 3127.155743  3127.155743 3127.155743  3127.155743 3127.155743  3127.155743 3127.155743 
 3118.440168 3118.440168  3118.440168 3118.440168  3118.440168 3118.440168  3118.440168 3118.440168  3118.440168 3118.440168 
 3118.440168 3118.440168  3118.440168 3118.440168  3118.440168 3118.440168  3118.440168 3118.440168  3118.440168 3118.440168 
 3118.440168 3118.440168  3118.440168 3118.440168  3118.440168 3118.440168  3118.440168 3118.440168  3118.440168 3118.440168 
 3118.440168 3118.440168  3118.440168 3118.440168  3118.440168 3118.440168  3118.440168 3118.440168  3118.440168 3118.440168 
 3109.724594 3109.724594  3109.724594 3109.724594  3109.724594 3109.724594  3109.724594 3109.724594  3109.724594 3109.724594 
 3109.724594 3109.724594  3109.724594 3109.724594  3109.724594 3109.724594  3109.724594 3109.724594  3109.724594 3109.724594 
 3109.724594 3109.724594  3109.724594 3109.724594  3109.724594 3109.724594  3109.724594 3109.724594  3109.724594 3109.724594 
 3109.724594 3109.724594  3109.724594 3109.724594  3109.724594 3109.724594  3109.724594 3109.724594  3109.724594 3109.724594 
 3101.009020 3101.009020  3101.009020 3101.009020  3101.009020 3101.009020  3101.009020 3101.009020  3101.009020 3101.009020 
 3101.009020 3101.009020  3101.009020 3101.009020  3101.009020 3101.009020  3101.009020 3101.009020  3101.009020 3101.009020 
 3101.009020 3101.009020  3101.009020 3101.009020  3101.009020 3101.009020  3101.009020 3101.009020  3101.009020 3101.009020 
 3101.009020 3101.009020  3101.009020 3101.009020  3101.009020 3101.009020  3101.009020 3101.009020  3101.009020 3101.009020 
 3092.293446 3092.293446  3092.293446 3092.293446  3092.293446 3092.293446  3092.293446 3092.293446  3092.293446 3092.293446 
 3092.293446 3092.293446  3092.293446 3092.293446  3092.293446 3092.293446  3092.293446 3092.293446  3092.293446 3092.293446 
 3092.293446 3092.293446  3092.293446 3092.293446  3092.293446 3092.293446  3092.293446 3092.293446  3092.293446 3092.293446 
 3092.293446 3092.293446  3092.293446 3092.293446  3092.293446 3092.293446  3092.293446 3092.293446  3092.293446 3092.293446 
 3083.577871 3083.577871  3083.577871 3083.577871  3083.577871 3083.577871  3083.577871 3083.577871  3083.577871 3083.577871 
 3083.577871 3083.577871  3083.577871 3083.577871  3083.577871 3083.577871  3083.577871 3083.577871  3083.577871 3083.577871 
 3083.577871 3083.577871  3083.577871 3083.577871  3083.577871 3083.577871  3083.577871 3083.577871  3083.577871 3083.577871 
 3083.577871 3083.577871  3083.577871 3083.577871  3083.577871 3083.577871  3083.577871 3083.577871  3083.577871 3083.577871 
 3074.862297 3074.862297  3074.862297 3074.862297  3074.862297 3074.862297  3074.862297 3074.862297  3074.862297 3074.862297 
 3074.862297 3074.862297  3074.862297 3074.862297  3074.862297 3074.862297  3074.862297 3074.862297  3074.862297 3074.862297 
 3074.862297 3074.862297  3074.862297 3074.862297  3074.862297 3074.862297  3074.862297 3074.862297  3074.862297 3074.862297 
 3074.862297 3074.862297  3074.862297 3074.862297  3074.862297 3074.862297  3074.862297 3074.862297  3074.862297 3074.862297 
 3066.146723 3066.146723  3066.146723 3066.146723  3066.146723 3066.146723  3066.146723 3066.146723  3066.146723 3066.146723 
 3066.146723 3066.146723  3066.146723 3066.146723  3066.146723 3066.146723  3066.146723 3066.146723  3066.146723 3066.146723 
 3066.146723 3066.146723  3066.146723 3066.146723  3066.146723 3066.146723  3066.146723 3066.146723  3066.146723 3066.146723 
 3066.146723 3066.146723  3066.146723 3066.146723  3066.146723 3066.146723  3066.146723 3066.146723  3066.146723 3066.146723 
 3057.431149 3057.431149  3057.431149 3057.431149  3057.431149 3057.431149  3057.431149 3057.431149  3057.431149 3057.431149 
 3057.431149 3057.431149  3057.431149 3057.431149  3057.431149 3057.431149  3057.431149 3057.431149  3057.431149 3057.431149 
 3057.431149 3057.431149  3057.431149 3057.431149  3057.431149 3057.431149  3057.431149 3057.431149  3057.431149 3057.431149 
 3057.431149 3057.431149  3057.431149 3057.431149  3057.431149 3057.431149  3057.431149 3057.431149  3057.431149 3057.431149 
 3048.715574 3048.715574  3048.715574 3048.715574  3048.715574 3048.715574  3048.715574 3048.715574  3048.715574 3048.715574 
 3048.715574 3048.715574  3048.715574 3048.715574  3048.715574 3048.715574  3048.715574 3048.715574  3048.715574 3048.715574 
 3048.715574 3048.715574  3048.715574 3048.715574  3048.715574 3048.715574  3048.715574 3048.715574  3048.715574 3048.715574 
 3048.715574 3048.715574  3048.715574 3048.715574  3048.715574 3048.715574  3048.715574 3048.715574  3048.715574 3048.715574 
 3040.000000 3040.000000  3040.000000 3040.000000  3040.000000 3040.000000  3040.000000 3040.000000  3040.000000 3040.000000 
 3040.000000 3040.000000  3040.000000 3040.000000  3040.000000 3040.000000  3040.000000 3040.000000  3040.000000 3040.000000 

-- Bottom of layer 2
 3132.155743 3132.155743  3132.155743 3132.155743  3132.155743 3132.155743  3132.155743 3132.155743  3132.155743 3132.155743 
 3132.155743 3132.155743  3132.155743 3132.155743  3132.155743 3132.155743  3132.155743 3132.155743  3132.155743 3132.155743 
 3123.440168 3123.440168  3123.440168 3123.440168  3123.440168 3123.440168  3123.440168 3123.440168  3123.440168 3123.440168 
 3123.440168 3123.440168  3123.440168 3123.440168  3123.440168 3123.440168  3123.440168 3123.440168  3123.440168 3123.440168 
 3123.440168 3123.440168  3123.440168 3123.440168  3123.440168 3123.440168  3123.440168 3123.440168  3123.440168 3123.440168 
 3123.440168 3123.440168  3123.440168 3123.440168  3123.440168 3123.440168  3123.440168 3123.440168  3123.440168 3123.440168 
 3114.724594 3114.724594  3114.724594 3114.724594  3114.724594 3114.724594  3114.724594 3114.724594  3114.724594 3114.724594 
 3114.724594 3114.724594  3114.724594 3114.724594  3114.724594 3114.724594  3114.724594 3114.724594  3114.724594 3114.724594 
 3114.724594 3114.724594  3114.724594 3114.724594  3114.724594 3114.724594  3114.724594 3114.724594  3114.724594 3114.724594 
 3114.724594 3114.724594  3114.724594 3114.724594  3114.724594 3114.724594  3114.724594 3114.724594  3114.724594 3114.724594 
 3106.009020 3106.009020  3106.009020 3106.009020  3106.009020 3106.009020  3106.009020 3106.009020  3106.009020 3106.009020 
 3106.009020 3106.009020  3106.009020 3106.009020  3106.009020 3106.009020  3106.009020 3106.009020  3106.009020 3106.009020 
 3106.009020 3106.009020  3106.009020 3106.009020  3106.009020 3106.009020  3106.009020 3106.009020  3106.009020 3106.009020 
 3106.009020 3106.009020  3106.009020 3106.009020  3106.009020 3106.009020  3106.009020 3106.009020  3106.009020 3106.009020 
 3097.293446 3097.293446  3097.293446 3097.293446  3097.293446 3097.293446  3097.293446 3097.293446  3097.293446 3097.293446 
 3097.293446 3097.293446  3097.293446 3097.293446  3097.293446 3097.293446  3097.293446 3097.293446  3097.293446 3097.293446 
 3097.293446 3097.293446  3097.293446 3097.293446  3097.293446 3097.293446  3097.293446 3097.293446  3097.293446 3097.293446 
 3097.293446 3097.293446  3097.293446 3097.293446  3097.293446 3097.293446  3097.293446 3097.293446  3097.293446 3097.293446 
 3088.577871 3088.577871  3088.577871 3088.577871  3088.577871 3088.577871  3088.577871 3088.577871  3088.577871 3088.577871 
 3088.577871 3088.577871  3088.577871 3088.577871  3088.577871 3088.577871  3088.577871 3088.577871  3088.577871 3088.577871 
 3088.577871 3088.577871  3088.577871 3088.577871  3088.577871 3088.577871  3088.577871 3088.577871  3088.577871 3088.577871 
 3088.577871 3088.577871  3088.577871 3088.577871  3088.577871 3088.577871  3088.577871 3088.577871  3088.577871 3088.577871 
 3079.862297 3079.862297  3079.862297 3079.862297  3079.862297 3079.862297  3079.862297 3079.862297  3079.862297 3079.862297 
 3079.862297 3079.862297  3079.862297 3079.862297  3079.862297 3079.862297  3079.862297 3079.862297  3079.862297 3079.862297 
 3079.862297 3079.862297  3079.862297 3079.862297  3079.862297 3079.862297  3079.862297 3079.862297  3079.862297 3079.862297 
 3079.862297 3079.862297  3079.862297 3079.862297  3079.862297 3079.862297  3079.862297 3079.862297  3079.862297 3079.862297 
 3071.146723 3071.146723  3071.146723 3071.146723  3071.146723 3071.146723  3071.146723 3071.146723  3071.146723 3071.146723 
 3071.146723 3071.146723  3071.146723 3071.146723  3071.146723 3071.146723  3071.146723 3071.146723  3071.146723 3071.146723 
 3071.146723 3071.146723  3071.146723 3071.146723  3071.146723 3071.146723  3071.146723 3071.146723  3071.146723 3071.146723 
 3071.146723 3071.146723  3071.146723 3071.146723  3071.146723 3071.146723  3071.146723 3071.146723  3071.146723 3071.146723 
 3062.431149 3062.431149  3062.431149 3062.431149  3062.431149 3062.431149  3062.431149 3062.431149  3062.431149 3062.431149 
 3062.431149 3062.431149  3062.431149 3062.431149  3062.431149 3062.431149  3062.431149 3062.431149  3062.431149 3062.431149 
 3062.431149 3062.431149  3062.431149 3062.431149  3062.431149 3062.431149  3062.431149 3062.431149  3062.431149 3062.431149 
 3062.431149 3062.431149  3062.431149 3062.431149  3062.431149 3062.431149  3062.431149 3062.431149  3062.431149 3062.431149 
 3053.715574 3053.715574  3053.715574 3053.715574  3053.715574 3053.715574  3053.715574 3053.715574  3053.715574 3053.715574 
 3053.715574 3053.715574  3053.715574 3053.715574  3053.715574 3053.715574  3053.715574 3053.715574  3053.715574 3053.715574 
 3053.715574 3053.715574  3053.715574 3053.715574  3053.715574 3053.715574  3053.715574 3053.715574  3053.715574 3053.715574 
 3053.715574 3053.715574  3053.715574 3053.715574  3053.715574 3053.715574  3053.715574 3053.715574  3053.715574 3053.715574 
 3045.000000 3045.000000  3045.000000 3045.000000  3045.000000 3045.000000  3045.000000 3045.000000  3045.000000 3045.000000 
 3045.000000 3045.000000  3045.000000 3045.000000  3045.000000 3045.000000  3045.000000 3045.000000  3045.000000 3045.000000 

-- Top of layer 3
 3132.155743 3132.155743  3132.155743 3132.155743  3132.155743 3132.155743  3132.155743 3132.155743  3132.155743 3132.155743 
 3132.155743 3132.155743  3132.155743 3132.155743  3132.155743 3132.155743  3132.155743 3132.155743  3132.155743 3132.155743 
 3123.440168 3123.440168  3123.440168 3123.440168  3123.440168 3123.440168  3123.440168 3123.440168  3123.440168 3123.440168 
 3123.440168 3123.440168  3123.440168 3123.440168  3123.440168 3123.440168  3123.440168 3123.440168  3123.440168 3123.440168 
 3123.440168 3123.440168  3123.440168 3123.440168  3123.440168 3123.440168  3123.440168 3123.440168  3123.440168 3123.440168 
 3123.440168 3123.440168  3123.440168 3123.440168  3123.440168 3123.440168  3123.440168 3123.440168  3123.440168 3123.440168 
 3114.724594 3114.724594  3114.724594 3114.724594  3114.724594 3114.724594  3114.724594 3114.724594  3114.724594 3114.724594 
 3114.724594 3114.724594  3114.724594 3114.724594  3114.724594 3114.724594  3114.724594 3114.724594  3114.724594 3114.724594 
 3114.724594 3114.724594  3114.724594 3114.724594  3114.724594 3114.724594  3114.724594 3114.724594  3114.724594 3114.724594 